# vtk DataFile Version 3.0
Output from R3t
ASCII
DATASET UNSTRUCTURED_GRID
POINTS       8652 double
      0.50000000E-01     -0.50000000E-02      0.48500000E+00
      0.10000000E+00     -0.50000000E-02      0.48500000E+00
      0.15000000E+00     -0.50000000E-02      0.48500000E+00
      0.20000000E+00     -0.50000000E-02      0.48500000E+00
      0.25000000E+00     -0.50000000E-02      0.48500000E+00
      0.30000000E+00     -0.50000000E-02      0.48500000E+00
      0.35000000E+00     -0.50000000E-02      0.48500000E+00
      0.40000000E+00     -0.50000000E-02      0.48500000E+00
      0.50000000E-01      0.00000000E+00      0.42500000E+00
      0.10000000E+00      0.00000000E+00      0.42500000E+00
      0.15000000E+00      0.00000000E+00      0.42500000E+00
      0.20000000E+00      0.00000000E+00      0.42500000E+00
      0.25000000E+00      0.00000000E+00      0.42500000E+00
      0.30000000E+00      0.00000000E+00      0.42500000E+00
      0.35000000E+00      0.00000000E+00      0.42500000E+00
      0.40000000E+00      0.00000000E+00      0.42500000E+00
      0.50000000E-01      0.00000000E+00      0.37500000E+00
      0.10000000E+00      0.00000000E+00      0.37500000E+00
      0.15000000E+00      0.00000000E+00      0.37500000E+00
      0.20000000E+00      0.00000000E+00      0.37500000E+00
      0.25000000E+00      0.00000000E+00      0.37500000E+00
      0.30000000E+00      0.00000000E+00      0.37500000E+00
      0.35000000E+00      0.00000000E+00      0.37500000E+00
      0.40000000E+00      0.00000000E+00      0.37500000E+00
      0.50000000E-01      0.00000000E+00      0.32500000E+00
      0.10000000E+00      0.00000000E+00      0.32500000E+00
      0.15000000E+00      0.00000000E+00      0.32500000E+00
      0.20000000E+00      0.00000000E+00      0.32500000E+00
      0.25000000E+00      0.00000000E+00      0.32500000E+00
      0.30000000E+00      0.00000000E+00      0.32500000E+00
      0.35000000E+00      0.00000000E+00      0.32500000E+00
      0.40000000E+00      0.00000000E+00      0.32500000E+00
      0.50000000E-01      0.00000000E+00      0.27500000E+00
      0.10000000E+00      0.00000000E+00      0.27500000E+00
      0.15000000E+00      0.00000000E+00      0.27500000E+00
      0.20000000E+00      0.00000000E+00      0.27500000E+00
      0.25000000E+00      0.00000000E+00      0.27500000E+00
      0.30000000E+00      0.00000000E+00      0.27500000E+00
      0.35000000E+00      0.00000000E+00      0.27500000E+00
      0.40000000E+00      0.00000000E+00      0.27500000E+00
      0.50000000E-01      0.00000000E+00      0.22500000E+00
      0.10000000E+00      0.00000000E+00      0.22500000E+00
      0.15000000E+00      0.00000000E+00      0.22500000E+00
      0.20000000E+00      0.00000000E+00      0.22500000E+00
      0.25000000E+00      0.00000000E+00      0.22500000E+00
      0.30000000E+00      0.00000000E+00      0.22500000E+00
      0.35000000E+00      0.00000000E+00      0.22500000E+00
      0.40000000E+00      0.00000000E+00      0.22500000E+00
      0.50000000E-01      0.00000000E+00      0.17500000E+00
      0.10000000E+00      0.00000000E+00      0.17500000E+00
      0.15000000E+00      0.00000000E+00      0.17500000E+00
      0.20000000E+00      0.00000000E+00      0.17500000E+00
      0.50000000E-01      0.00000000E+00      0.12500000E+00
      0.10000000E+00      0.00000000E+00      0.12500000E+00
      0.15000000E+00      0.00000000E+00      0.12500000E+00
      0.20000000E+00      0.00000000E+00      0.12500000E+00
      0.25000000E+00      0.00000000E+00      0.12500000E+00
      0.30000000E+00      0.00000000E+00      0.12500000E+00
      0.35000000E+00      0.00000000E+00      0.12500000E+00
      0.40000000E+00      0.00000000E+00      0.12500000E+00
      0.50000000E-01      0.00000000E+00      0.75000000E-01
      0.10000000E+00      0.00000000E+00      0.75000000E-01
      0.15000000E+00      0.00000000E+00      0.75000000E-01
      0.20000000E+00      0.00000000E+00      0.75000000E-01
      0.25000000E+00      0.00000000E+00      0.75000000E-01
      0.30000000E+00      0.00000000E+00      0.75000000E-01
      0.35000000E+00      0.00000000E+00      0.75000000E-01
      0.40000000E+00      0.00000000E+00      0.75000000E-01
      0.00000000E+00      0.00000000E+00      0.00000000E+00
      0.45000000E+00      0.00000000E+00      0.00000000E+00
      0.00000000E+00      0.00000000E+00      0.50000000E+00
      0.45000000E+00      0.00000000E+00      0.50000000E+00
      0.00000000E+00     -0.30000000E-01      0.00000000E+00
      0.45000000E+00     -0.30000000E-01      0.00000000E+00
      0.00000000E+00     -0.30000000E-01      0.50000000E+00
      0.45000000E+00     -0.30000000E-01      0.50000000E+00
      0.00000000E+00     -0.30000000E-01      0.10000000E-01
      0.00000000E+00     -0.30000000E-01      0.20000000E-01
      0.00000000E+00     -0.30000000E-01      0.30000000E-01
      0.00000000E+00     -0.30000000E-01      0.40000000E-01
      0.00000000E+00     -0.30000000E-01      0.50000000E-01
      0.00000000E+00     -0.30000000E-01      0.60000000E-01
      0.00000000E+00     -0.30000000E-01      0.70000000E-01
      0.00000000E+00     -0.30000000E-01      0.80000000E-01
      0.00000000E+00     -0.30000000E-01      0.90000000E-01
      0.00000000E+00     -0.30000000E-01      0.10000000E+00
      0.00000000E+00     -0.30000000E-01      0.11000000E+00
      0.00000000E+00     -0.30000000E-01      0.12000000E+00
      0.00000000E+00     -0.30000000E-01      0.13000000E+00
      0.00000000E+00     -0.30000000E-01      0.14000000E+00
      0.00000000E+00     -0.30000000E-01      0.15000000E+00
      0.00000000E+00     -0.30000000E-01      0.16000000E+00
      0.00000000E+00     -0.30000000E-01      0.17000000E+00
      0.00000000E+00     -0.30000000E-01      0.18000000E+00
      0.00000000E+00     -0.30000000E-01      0.19000000E+00
      0.00000000E+00     -0.30000000E-01      0.20000000E+00
      0.00000000E+00     -0.30000000E-01      0.21000000E+00
      0.00000000E+00     -0.30000000E-01      0.22000000E+00
      0.00000000E+00     -0.30000000E-01      0.23000000E+00
      0.00000000E+00     -0.30000000E-01      0.24000000E+00
      0.00000000E+00     -0.30000000E-01      0.25000000E+00
      0.00000000E+00     -0.30000000E-01      0.26000000E+00
      0.00000000E+00     -0.30000000E-01      0.27000000E+00
      0.00000000E+00     -0.30000000E-01      0.28000000E+00
      0.00000000E+00     -0.30000000E-01      0.29000000E+00
      0.00000000E+00     -0.30000000E-01      0.30000000E+00
      0.00000000E+00     -0.30000000E-01      0.31000000E+00
      0.00000000E+00     -0.30000000E-01      0.32000000E+00
      0.00000000E+00     -0.30000000E-01      0.33000000E+00
      0.00000000E+00     -0.30000000E-01      0.34000000E+00
      0.00000000E+00     -0.30000000E-01      0.35000000E+00
      0.00000000E+00     -0.30000000E-01      0.36000000E+00
      0.00000000E+00     -0.30000000E-01      0.37000000E+00
      0.00000000E+00     -0.30000000E-01      0.38000000E+00
      0.00000000E+00     -0.30000000E-01      0.39000000E+00
      0.00000000E+00     -0.30000000E-01      0.40000000E+00
      0.00000000E+00     -0.30000000E-01      0.41000000E+00
      0.00000000E+00     -0.30000000E-01      0.42000000E+00
      0.00000000E+00     -0.30000000E-01      0.43000000E+00
      0.00000000E+00     -0.30000000E-01      0.44000000E+00
      0.00000000E+00     -0.30000000E-01      0.45000000E+00
      0.00000000E+00     -0.30000000E-01      0.46000000E+00
      0.00000000E+00     -0.30000000E-01      0.47000000E+00
      0.00000000E+00     -0.30000000E-01      0.48000000E+00
      0.00000000E+00     -0.30000000E-01      0.49000000E+00
      0.10000000E-01     -0.30000000E-01      0.50000000E+00
      0.20000000E-01     -0.30000000E-01      0.50000000E+00
      0.30000000E-01     -0.30000000E-01      0.50000000E+00
      0.40000000E-01     -0.30000000E-01      0.50000000E+00
      0.50000000E-01     -0.30000000E-01      0.50000000E+00
      0.60000000E-01     -0.30000000E-01      0.50000000E+00
      0.70000000E-01     -0.30000000E-01      0.50000000E+00
      0.80000000E-01     -0.30000000E-01      0.50000000E+00
      0.90000000E-01     -0.30000000E-01      0.50000000E+00
      0.10000000E+00     -0.30000000E-01      0.50000000E+00
      0.11000000E+00     -0.30000000E-01      0.50000000E+00
      0.12000000E+00     -0.30000000E-01      0.50000000E+00
      0.13000000E+00     -0.30000000E-01      0.50000000E+00
      0.14000000E+00     -0.30000000E-01      0.50000000E+00
      0.15000000E+00     -0.30000000E-01      0.50000000E+00
      0.16000000E+00     -0.30000000E-01      0.50000000E+00
      0.17000000E+00     -0.30000000E-01      0.50000000E+00
      0.18000000E+00     -0.30000000E-01      0.50000000E+00
      0.19000000E+00     -0.30000000E-01      0.50000000E+00
      0.20000000E+00     -0.30000000E-01      0.50000000E+00
      0.21000000E+00     -0.30000000E-01      0.50000000E+00
      0.22000000E+00     -0.30000000E-01      0.50000000E+00
      0.23000000E+00     -0.30000000E-01      0.50000000E+00
      0.24000000E+00     -0.30000000E-01      0.50000000E+00
      0.25000000E+00     -0.30000000E-01      0.50000000E+00
      0.26000000E+00     -0.30000000E-01      0.50000000E+00
      0.27000000E+00     -0.30000000E-01      0.50000000E+00
      0.28000000E+00     -0.30000000E-01      0.50000000E+00
      0.29000000E+00     -0.30000000E-01      0.50000000E+00
      0.30000000E+00     -0.30000000E-01      0.50000000E+00
      0.31000000E+00     -0.30000000E-01      0.50000000E+00
      0.32000000E+00     -0.30000000E-01      0.50000000E+00
      0.33000000E+00     -0.30000000E-01      0.50000000E+00
      0.34000000E+00     -0.30000000E-01      0.50000000E+00
      0.35000000E+00     -0.30000000E-01      0.50000000E+00
      0.36000000E+00     -0.30000000E-01      0.50000000E+00
      0.37000000E+00     -0.30000000E-01      0.50000000E+00
[...]
POINT_DATA      8652
CELL_DATA     32557
SCALARS Resistivity(ohm.m) double 1
LOOKUP_TABLE default
             9.70967            10.23069             9.69519            10.22104            10.15963             9.31007            10.34916            10.09198            10.16830            10.01168             9.98259             9.27090             9.01872            10.19399            10.22186             9.67019             9.72929            10.48062             9.96152            10.34061             9.95017             9.99825             9.66869            10.01867             9.96953             9.98691            10.05928            10.26278            10.02941             9.63571            10.17497             9.61751             9.98107            10.10741             9.93101            10.32789             9.83261            10.14429             9.98208            10.07900            10.13059            10.33722            10.44266            10.08110            10.43298            10.09885            10.23372            10.50283            10.28441            10.70537             9.47466            10.12346             9.74019            10.27992             9.95622            10.14699             9.75814            10.00226            10.33347             9.68252             9.99738             9.58190            10.12112            10.46541            10.64657            10.21871            10.32045            10.42271             9.24009             9.88645            10.21982             9.73191            10.12988             9.73156            10.15877             9.74745            10.91449            10.85294             9.64379             9.83461             9.90052            10.26649            10.11309             9.90264            10.17125             9.75546            10.12123            10.15548            10.22747             9.54451            10.02506             9.75571            10.13156            10.39733             9.89185             9.78286            10.30326            10.26103            10.02547             9.94359            10.01305             9.69976            10.27946            10.23362             9.76762            10.17831             9.93312            10.57472             9.04513             9.38481            10.73614            10.37414            10.10852            10.37110             9.95696             9.85715             9.99274            10.03262            10.03502             9.62937            10.21851             9.92126            10.41217             9.94000            10.43476            10.19424            10.05618            10.22378            10.07093            10.35672             9.87964            10.17513             9.68789             9.80213             9.35922            10.28078            10.13109            10.16266             9.88777             9.85518            10.16267             9.64968             9.90451            10.28763             9.63085            10.76515             9.86350             9.84338            10.15296             9.73949            10.23110             9.64075             9.63881            10.86787            10.08398             9.76440            10.32964             9.89138            10.37768            10.30636             9.64682            10.53672            10.12910            10.11766            10.13737            10.41817            10.24880            10.01926             9.85405             9.79795             9.77325             9.90513            10.54082             9.67054             9.88388             9.82863             9.79124            10.29088            10.23090            10.30410            10.26944            10.45573            10.11540            10.01326            10.22075            10.17773             9.95295            10.22656            10.22927            10.19874            10.05567             9.66205             9.83367             9.54554             9.71939            10.23528             9.98326            10.19093            10.24207            10.45196            10.23438            10.21414            10.16621            10.38264             9.62183            10.27637             9.96926             9.75217            10.13768            10.16430            10.00302            10.27037            10.26064            10.12443             9.83148            10.21654            10.16269            10.14529             9.99682            10.26696            10.36648             9.88582             9.82061            10.69338            10.03546             9.88426            10.13191            10.25641            10.16024            10.48859             9.91054            10.34084             9.68780            10.23154             9.72837             9.58115            10.19396             9.96335            10.08855            10.10153            10.42373            10.35172            10.13860             9.73634            10.36888             9.42599            10.07741            10.27478             9.90557            10.29341            10.14961             9.96187            10.12932             9.61224            10.06210             9.72017            10.28045             9.69783             9.44469            10.26688             9.86744            10.55861             9.60756            10.11040             9.79919            10.26588             9.87724            10.02173             9.97689            10.09979             9.96663             9.96402             9.98165             9.88442            10.24869             9.86254             9.72342             9.65568            10.23007             9.79081             9.30962            10.13418             9.95804            10.29201             9.54685             9.77780             9.80723            10.13668            10.22457            10.22037            10.22977            10.17645            10.11714             9.88654             9.91414             9.99606            10.01108            10.01005            10.28403            10.11967            10.14962            10.22604            10.61607            10.01665             9.77092             9.74997             9.69872             9.70322            10.07764             9.64598             9.63473            10.29601             9.66590            10.08641             9.92648            10.29997            10.26472            10.38238            10.94937            10.01200            10.25788            10.00431             9.88442             9.94827            10.07956             9.91414            10.35428            10.28216             9.80680            10.07098            10.02563            10.17304            10.33804             9.67858            10.33782            10.08897             9.68622            10.11951            10.17623             9.45478            10.02401            10.34046            10.78871            10.20570             9.81069            10.24533             9.98155            10.13503            10.21277            10.24918            10.18143            10.18718            10.12895             9.90459            10.60220            10.29249             9.88645             9.83652            10.25212             9.78763            10.20754             9.68236             9.94188             9.58059            10.09353             9.98411            10.16015             9.88251             9.52626            10.09543            10.11128             9.57005            10.11750             9.87856            10.41557             9.78386            10.05798            10.12866             9.89752            10.31457             9.95063            10.51516            10.61663             9.75922             9.50865            10.51711            10.31475             9.74471            10.38852            10.27497             9.14162             9.59170             9.97401            10.95412            10.11297             9.87583            10.20666            10.17443            10.22036             9.94704            10.56974             9.84319            10.06637            10.41289             9.91414            10.28204             9.99615            10.23284             9.85127            10.20333            10.28461             9.95074             9.64735            10.10470             9.72609            10.22796            10.23250            10.41146             9.52377            10.58175             9.76408            10.34150             9.73289             9.90835            10.22194            10.41460            10.14527            10.10199            10.08692             8.99494            10.19047             9.88570            10.86959             9.67627            10.08653            10.51733            10.93607             9.32365            10.18606            10.18217            10.37639             9.91056             9.60921            10.20551            10.45487            10.92410             9.98434            10.36464            10.30399             9.73584             9.96180            10.18081             9.65225            10.30189             9.93728             9.76272            10.11561            10.27358            10.17936            10.00675            10.18152             9.83769            10.11597             9.77242            10.88630            10.05115            10.40840            10.20652            10.12376             9.95776            10.04503            10.44158            10.35567            10.20647            10.51264             9.67738             9.88098             9.52915            10.16553            10.09752            10.30294            10.09237            10.14961             9.54088             9.91667            10.37034            10.42480            10.29140             9.76872            10.08479            10.05889            10.59730             9.91309            10.28156             9.61129             9.93802            10.18023            10.09899             9.35158            10.72382            10.17978             9.95232            10.75376            10.10150            10.04276             9.86714            10.25119            10.06821            10.14140            10.15739            10.04592             9.48655             9.73753            10.13743            10.19421            10.18933            10.09592             9.88158            10.18767            10.47138             9.51490            10.12705            10.15443            10.08144            10.29597            10.16645             9.79009            10.86895            10.08505            10.20616             9.97562            10.03670             9.72307            10.18269            10.23504             9.58048            10.11900             9.81781             9.81496             9.95149             9.93520            10.25515            10.12679             9.95982            10.05061            10.16493             9.83106             9.52497            10.10374             9.54234            10.02917            10.17187            10.09867             9.71730             9.69538             9.74184            10.53192            10.06794             9.94277             9.72020            10.10894            10.32165            10.29184             9.90991            10.08247            10.56952            10.12616            10.10516             9.84647            10.14969            10.20403            10.10181            10.04472            10.21542             9.71050            10.10621             9.60351            10.32509             9.73261            10.19444            10.22998            10.56246             9.73548             9.92295             9.84434            10.01168             9.74091            10.57968            10.10516            10.25109            10.25997            10.08152             9.40428            10.08973            10.16295            10.10468             9.85494            10.10212            10.31858            10.11260             9.98597             9.60395            10.18841             9.65919             9.88707            10.13011            10.12057            10.07958            10.00971             9.93090            10.01245             9.64778            10.13390            10.10627            10.91574            10.54856             9.93020            10.12889            10.10211            10.46715             9.95096            10.21780             9.87624            10.10491             9.39160             9.97345            10.17614            10.37274            10.16826            10.83046            10.14544             9.46501            10.87784            10.25230            10.43535            10.12789            10.13434            10.60654            10.51030             9.74325            10.17854            10.01746            10.26984             9.70721            10.25067             9.49408             9.82857             9.26587            10.59006            10.09830            10.20997            10.46567             9.62194            10.00322             9.81176            10.00964             9.72985            10.14127             9.78024            10.10293             9.90348             9.76520            10.06959            10.21593            10.12813            10.01018             9.80555            10.25465            10.27134            10.19377             9.99055             9.71217            10.06274            10.13703            10.28514             9.73034             9.86532            10.13527            10.16644            10.16196            10.49423            10.21235             9.77244            10.46746            10.13597            10.23608            10.12819            10.04273             9.80030            10.26075            10.07843             9.82175            10.05861            10.16200             9.68778            10.25794            10.18063            10.10644            10.39768            10.01681            10.14025             9.89301            10.76320             9.98040            10.29764            10.40554             9.88416             9.81904             9.75120            10.24552            10.10282             9.53822            10.07846             9.78593            10.25227            10.23314            10.13542            10.10590             9.81693            10.35401             9.40074             9.98083            10.11744            10.22020            10.36043            10.33476            10.54359            10.10236            10.15986            10.19663            10.24656            10.25342             9.68013             9.91310            10.23492             9.82240            10.10412             9.73160            10.15317            10.83071            10.27687            10.12865             9.19033            10.16270             9.83656            10.46565             9.76908            10.07487            10.10845             9.84634            10.14121            10.20996             9.60220            10.08954            10.22566             9.92597             9.57496            10.19353            10.22428             9.64840            10.30183             9.91076             9.84461             9.99528            10.03425            10.89501             9.75366             9.93815            10.37280            10.42117             9.72536             9.72064            10.01841             9.81109            10.39508            10.23274            10.36224            10.14039            10.19864            10.08026             9.87195            10.20341            10.04584             9.91582            10.40623             9.94331             9.69381            10.36209             9.64391            10.04838            10.39200            10.22484            10.25237            10.85402             9.63696             9.87956            10.21237             9.54034             9.83813            10.18084            10.54734            10.93994             9.53911            10.05148            10.40093            10.13322            10.14922             9.77047            10.10544             9.63525            10.06867             9.67161             9.35429            10.15789             9.00691            10.21863            10.16577            10.26459            10.16775            10.17649            10.40433             9.54199            10.19210            10.19344             9.70915            10.43122             9.85632             9.53984            10.46105             9.89755            10.12466            10.23059            10.11567            10.12969            10.46657             9.86315            10.25861            10.37784            10.71617            10.23609             9.61120             9.95460             9.46735            10.12692            10.21432            10.42394            10.04479            10.22881            10.10296            10.40183            10.24142            10.11188            10.12156            10.25365            10.10421            10.16229            10.12590            10.14644            10.00229            10.06532            10.12374            10.50005            10.23391             9.61665             9.90544            10.26805            10.21121             9.61836            10.35783            10.67903            10.92219            10.19260             9.65722             9.84269            10.26483             9.98723            10.30058             9.87754            10.40102            10.24646            10.21412             9.88496            10.19087            10.11910            10.22583            10.08267             9.99183            10.22228            10.13526            10.26736             9.63540            10.15996            10.12645            10.08484            10.07051            10.32425            10.48993             9.81205            10.34424             9.66104             9.97283            10.73174            10.05673            10.09791            10.23602            10.00370             9.95753            10.23637             9.96725            10.09379             9.48435             9.84465            10.14484             9.90148            10.03745            10.16155             9.46797             9.88404            10.01650             9.71208            10.06525            10.33104             9.91424            10.22990            10.36072            10.33839            10.13935            10.03678             9.24368             9.68222             9.08839            10.23715            10.00622            10.40409             9.73689            10.35154            10.19731            10.10924            10.21704             9.89751             9.77460            10.43562             9.94131            10.15822            10.24399             9.74717             9.42388            10.53210            10.18177            10.24665             9.88834             9.60514             9.91037             9.57734             9.95158            10.23270            10.12134             9.94344             9.62958            10.33118            10.08109             9.54251             9.93893            10.51194            10.71941             9.76122             9.77177             9.81531            10.06927            10.25835            10.06619            10.18079            10.01327             9.48092             9.66132            10.52703             9.61201             9.67620             9.90891            10.01260            10.17852             9.60269             9.58182            10.06455            10.09353             9.96434            10.10282             9.58259            10.18235             9.84009             9.84112            10.55631            10.20431             9.96201             9.82840  