# vtk DataFile Version 3.0
Output from R3t
ASCII
DATASET UNSTRUCTURED_GRID
POINTS       8652 double
      0.50000000E-01     -0.50000000E-02      0.48500000E+00
      0.10000000E+00     -0.50000000E-02      0.48500000E+00
      0.15000000E+00     -0.50000000E-02      0.48500000E+00
      0.20000000E+00     -0.50000000E-02      0.48500000E+00
      0.25000000E+00     -0.50000000E-02      0.48500000E+00
      0.30000000E+00     -0.50000000E-02      0.48500000E+00
      0.35000000E+00     -0.50000000E-02      0.48500000E+00
      0.40000000E+00     -0.50000000E-02      0.48500000E+00
      0.50000000E-01      0.00000000E+00      0.42500000E+00
      0.10000000E+00      0.00000000E+00      0.42500000E+00
      0.15000000E+00      0.00000000E+00      0.42500000E+00
      0.20000000E+00      0.00000000E+00      0.42500000E+00
      0.25000000E+00      0.00000000E+00      0.42500000E+00
      0.30000000E+00      0.00000000E+00      0.42500000E+00
      0.35000000E+00      0.00000000E+00      0.42500000E+00
      0.40000000E+00      0.00000000E+00      0.42500000E+00
      0.50000000E-01      0.00000000E+00      0.37500000E+00
      0.10000000E+00      0.00000000E+00      0.37500000E+00
      0.15000000E+00      0.00000000E+00      0.37500000E+00
      0.20000000E+00      0.00000000E+00      0.37500000E+00
      0.25000000E+00      0.00000000E+00      0.37500000E+00
      0.30000000E+00      0.00000000E+00      0.37500000E+00
      0.35000000E+00      0.00000000E+00      0.37500000E+00
      0.40000000E+00      0.00000000E+00      0.37500000E+00
      0.50000000E-01      0.00000000E+00      0.32500000E+00
      0.10000000E+00      0.00000000E+00      0.32500000E+00
      0.15000000E+00      0.00000000E+00      0.32500000E+00
      0.20000000E+00      0.00000000E+00      0.32500000E+00
      0.25000000E+00      0.00000000E+00      0.32500000E+00
      0.30000000E+00      0.00000000E+00      0.32500000E+00
      0.35000000E+00      0.00000000E+00      0.32500000E+00
      0.40000000E+00      0.00000000E+00      0.32500000E+00
      0.50000000E-01      0.00000000E+00      0.27500000E+00
      0.10000000E+00      0.00000000E+00      0.27500000E+00
      0.15000000E+00      0.00000000E+00      0.27500000E+00
      0.20000000E+00      0.00000000E+00      0.27500000E+00
      0.25000000E+00      0.00000000E+00      0.27500000E+00
      0.30000000E+00      0.00000000E+00      0.27500000E+00
      0.35000000E+00      0.00000000E+00      0.27500000E+00
      0.40000000E+00      0.00000000E+00      0.27500000E+00
      0.50000000E-01      0.00000000E+00      0.22500000E+00
      0.10000000E+00      0.00000000E+00      0.22500000E+00
      0.15000000E+00      0.00000000E+00      0.22500000E+00
      0.20000000E+00      0.00000000E+00      0.22500000E+00
      0.25000000E+00      0.00000000E+00      0.22500000E+00
      0.30000000E+00      0.00000000E+00      0.22500000E+00
      0.35000000E+00      0.00000000E+00      0.22500000E+00
      0.40000000E+00      0.00000000E+00      0.22500000E+00
      0.50000000E-01      0.00000000E+00      0.17500000E+00
      0.10000000E+00      0.00000000E+00      0.17500000E+00
      0.15000000E+00      0.00000000E+00      0.17500000E+00
      0.20000000E+00      0.00000000E+00      0.17500000E+00
      0.50000000E-01      0.00000000E+00      0.12500000E+00
      0.10000000E+00      0.00000000E+00      0.12500000E+00
      0.15000000E+00      0.00000000E+00      0.12500000E+00
      0.20000000E+00      0.00000000E+00      0.12500000E+00
      0.25000000E+00      0.00000000E+00      0.12500000E+00
      0.30000000E+00      0.00000000E+00      0.12500000E+00
      0.35000000E+00      0.00000000E+00      0.12500000E+00
      0.40000000E+00      0.00000000E+00      0.12500000E+00
      0.50000000E-01      0.00000000E+00      0.75000000E-01
      0.10000000E+00      0.00000000E+00      0.75000000E-01
      0.15000000E+00      0.00000000E+00      0.75000000E-01
      0.20000000E+00      0.00000000E+00      0.75000000E-01
      0.25000000E+00      0.00000000E+00      0.75000000E-01
      0.30000000E+00      0.00000000E+00      0.75000000E-01
      0.35000000E+00      0.00000000E+00      0.75000000E-01
      0.40000000E+00      0.00000000E+00      0.75000000E-01
      0.00000000E+00      0.00000000E+00      0.00000000E+00
      0.45000000E+00      0.00000000E+00      0.00000000E+00
      0.00000000E+00      0.00000000E+00      0.50000000E+00
      0.45000000E+00      0.00000000E+00      0.50000000E+00
      0.00000000E+00     -0.30000000E-01      0.00000000E+00
      0.45000000E+00     -0.30000000E-01      0.00000000E+00
      0.00000000E+00     -0.30000000E-01      0.50000000E+00
      0.45000000E+00     -0.30000000E-01      0.50000000E+00
      0.00000000E+00     -0.30000000E-01      0.10000000E-01
      0.00000000E+00     -0.30000000E-01      0.20000000E-01
      0.00000000E+00     -0.30000000E-01      0.30000000E-01
      0.00000000E+00     -0.30000000E-01      0.40000000E-01
      0.00000000E+00     -0.30000000E-01      0.50000000E-01
      0.00000000E+00     -0.30000000E-01      0.60000000E-01
      0.00000000E+00     -0.30000000E-01      0.70000000E-01
      0.00000000E+00     -0.30000000E-01      0.80000000E-01
      0.00000000E+00     -0.30000000E-01      0.90000000E-01
      0.00000000E+00     -0.30000000E-01      0.10000000E+00
      0.00000000E+00     -0.30000000E-01      0.11000000E+00
      0.00000000E+00     -0.30000000E-01      0.12000000E+00
      0.00000000E+00     -0.30000000E-01      0.13000000E+00
      0.00000000E+00     -0.30000000E-01      0.14000000E+00
      0.00000000E+00     -0.30000000E-01      0.15000000E+00
      0.00000000E+00     -0.30000000E-01      0.16000000E+00
      0.00000000E+00     -0.30000000E-01      0.17000000E+00
      0.00000000E+00     -0.30000000E-01      0.18000000E+00
      0.00000000E+00     -0.30000000E-01      0.19000000E+00
      0.00000000E+00     -0.30000000E-01      0.20000000E+00
      0.00000000E+00     -0.30000000E-01      0.21000000E+00
      0.00000000E+00     -0.30000000E-01      0.22000000E+00
      0.00000000E+00     -0.30000000E-01      0.23000000E+00
      0.00000000E+00     -0.30000000E-01      0.24000000E+00
      0.00000000E+00     -0.30000000E-01      0.25000000E+00
      0.00000000E+00     -0.30000000E-01      0.26000000E+00
      0.00000000E+00     -0.30000000E-01      0.27000000E+00
      0.00000000E+00     -0.30000000E-01      0.28000000E+00
      0.00000000E+00     -0.30000000E-01      0.29000000E+00
      0.00000000E+00     -0.30000000E-01      0.30000000E+00
      0.00000000E+00     -0.30000000E-01      0.31000000E+00
      0.00000000E+00     -0.30000000E-01      0.32000000E+00
      0.00000000E+00     -0.30000000E-01      0.33000000E+00
      0.00000000E+00     -0.30000000E-01      0.34000000E+00
      0.00000000E+00     -0.30000000E-01      0.35000000E+00
      0.00000000E+00     -0.30000000E-01      0.36000000E+00
      0.00000000E+00     -0.30000000E-01      0.37000000E+00
      0.00000000E+00     -0.30000000E-01      0.38000000E+00
      0.00000000E+00     -0.30000000E-01      0.39000000E+00
      0.00000000E+00     -0.30000000E-01      0.40000000E+00
      0.00000000E+00     -0.30000000E-01      0.41000000E+00
      0.00000000E+00     -0.30000000E-01      0.42000000E+00
      0.00000000E+00     -0.30000000E-01      0.43000000E+00
      0.00000000E+00     -0.30000000E-01      0.44000000E+00
      0.00000000E+00     -0.30000000E-01      0.45000000E+00
      0.00000000E+00     -0.30000000E-01      0.46000000E+00
      0.00000000E+00     -0.30000000E-01      0.47000000E+00
      0.00000000E+00     -0.30000000E-01      0.48000000E+00
      0.00000000E+00     -0.30000000E-01      0.49000000E+00
      0.10000000E-01     -0.30000000E-01      0.50000000E+00
      0.20000000E-01     -0.30000000E-01      0.50000000E+00
      0.30000000E-01     -0.30000000E-01      0.50000000E+00
      0.40000000E-01     -0.30000000E-01      0.50000000E+00
      0.50000000E-01     -0.30000000E-01      0.50000000E+00
      0.60000000E-01     -0.30000000E-01      0.50000000E+00
      0.70000000E-01     -0.30000000E-01      0.50000000E+00
      0.80000000E-01     -0.30000000E-01      0.50000000E+00
      0.90000000E-01     -0.30000000E-01      0.50000000E+00
      0.10000000E+00     -0.30000000E-01      0.50000000E+00
      0.11000000E+00     -0.30000000E-01      0.50000000E+00
      0.12000000E+00     -0.30000000E-01      0.50000000E+00
      0.13000000E+00     -0.30000000E-01      0.50000000E+00
      0.14000000E+00     -0.30000000E-01      0.50000000E+00
      0.15000000E+00     -0.30000000E-01      0.50000000E+00
      0.16000000E+00     -0.30000000E-01      0.50000000E+00
      0.17000000E+00     -0.30000000E-01      0.50000000E+00
      0.18000000E+00     -0.30000000E-01      0.50000000E+00
      0.19000000E+00     -0.30000000E-01      0.50000000E+00
      0.20000000E+00     -0.30000000E-01      0.50000000E+00
      0.21000000E+00     -0.30000000E-01      0.50000000E+00
      0.22000000E+00     -0.30000000E-01      0.50000000E+00
      0.23000000E+00     -0.30000000E-01      0.50000000E+00
      0.24000000E+00     -0.30000000E-01      0.50000000E+00
      0.25000000E+00     -0.30000000E-01      0.50000000E+00
      0.26000000E+00     -0.30000000E-01      0.50000000E+00
      0.27000000E+00     -0.30000000E-01      0.50000000E+00
      0.28000000E+00     -0.30000000E-01      0.50000000E+00
      0.29000000E+00     -0.30000000E-01      0.50000000E+00
      0.30000000E+00     -0.30000000E-01      0.50000000E+00
      0.31000000E+00     -0.30000000E-01      0.50000000E+00
      0.32000000E+00     -0.30000000E-01      0.50000000E+00
      0.33000000E+00     -0.30000000E-01      0.50000000E+00
      0.34000000E+00     -0.30000000E-01      0.50000000E+00
      0.35000000E+00     -0.30000000E-01      0.50000000E+00
      0.36000000E+00     -0.30000000E-01      0.50000000E+00
      0.37000000E+00     -0.30000000E-01      0.50000000E+00
[...]
POINT_DATA      8652
CELL_DATA     32557
SCALARS Resistivity(ohm.m) double 1
LOOKUP_TABLE default
            10.79712            11.20807            10.80714            11.18422            11.07998            10.22244            11.52690            11.20384            11.11789            10.67018            10.64674            10.03979            10.01417            11.26206            11.15363            10.83505            10.69017            11.54740            10.92259            11.63310            11.17870            10.88740            10.63285            10.67239            10.99020            10.90212            11.09162            11.19798            11.23472            10.58288            11.11734            10.75437            10.85965            11.19653            10.90393            11.40404            10.69125            11.29172            10.88818            11.17571            11.17327            11.63237            11.60444            11.19961            11.68926            11.18921            11.23035            11.40870            11.24603            11.74600            10.43448            11.27891            10.43046            11.19459            11.10811            11.02663            10.46529            10.65405            11.43419            10.72482            11.05709            10.55707            11.13585            11.52464            11.64986            11.14686            11.52499            11.51173            10.14354            10.81020            11.10390            10.67575            11.16380            10.52776            11.49147            10.68721            11.89802            11.79668            10.58477            10.30650            11.14183            11.18939            11.12459            10.92101            11.12116            10.70426            10.85885            11.49270            11.15658            10.17466            10.87506            10.57138            11.31727            11.46502            11.10186            10.64672            11.41836            11.41995            10.83462            10.57400            10.68785            10.80307            11.22834            11.15377            10.72590            11.17424            10.84986            11.63149            10.03726            10.34517            11.72472            11.48140            11.00156            11.46266            11.11078            10.88875            10.88489            11.23970            10.84788            10.77927            11.18062            10.83797            11.59649            10.57090            11.53064            11.12886            11.14683            11.15632            10.92364            11.24382            11.08921            11.27952            10.75892            10.59589            10.00513            11.21600            11.09053            11.51185            10.90766            10.69169            11.29081            10.72191            11.14875            11.32849            10.77761            11.75417            10.70703            10.38573            11.17749            10.68958            11.17915            10.58812            10.53104            11.83173            11.18330            10.70188            11.29289            10.50755            11.39216            11.41498            10.75445            11.53022            10.38188            11.48436            11.50202            11.50081            11.48176            11.06536            10.55761            10.68040            10.63894            10.52184            11.44661            10.58942            10.49878            10.72088            10.66522            11.28745            11.19004            11.22920            11.26747            11.48872            11.12184            11.09498            11.34236            11.50630            11.05163            11.19715            11.19294            11.51586            10.90595            10.67712            10.56942            10.67890            10.58151            11.48084            10.96685            11.52384            11.30595            11.61749            11.02708            11.41604            11.30760            11.49891            10.62620            11.36940            10.93432            10.73219            11.13572            11.28556            10.99643            11.25129            11.20651            11.12963            10.77825            11.20106            11.04254            11.08558            10.97381            11.19189            11.40312            10.50166            10.72155            11.68053            10.91433            10.59702            11.28797            11.20379            11.36840            11.47952            11.08688            11.38559            10.81014            11.10983            10.83587            10.71211            11.15464            10.94605            11.09542            10.84974            11.43456            11.64515            11.15474            10.77442            11.15193            10.20581            11.18215            11.22955            11.14782            11.22226            11.16101            10.86063            11.13065            10.51397            10.81282            10.88243            11.22658            10.59181            10.39945            11.59050            10.59782            11.74904            10.75304            11.01941            10.65804            11.25424            11.10731            10.31230            10.68240            11.21634            11.04249            10.84797            10.88887            10.49855            11.15920            10.58894            10.28532            10.67532            11.16886            10.76632            10.13561            11.04542            10.88872            11.45214            10.56455            10.76490            10.77186            11.13892            11.14335            11.21015            11.17098            11.22907            11.11756            10.73764            11.10235            10.67059            10.67104            10.93818            11.22128            11.03347            11.11641            11.16677            11.62114            10.96802            10.72298            10.84672            10.70884            10.79755            11.09095            10.19764            10.58730            11.41155            10.74905            11.18648            10.77981            11.24704            11.18603            11.56232            11.93960            11.09602            11.20918            11.17639            10.81950            10.72984            11.17195            11.08680            11.45036            11.24253            10.76096            11.16210            10.93588            11.11665            11.23414            10.56841            11.43134            11.09599            10.60570            11.00297            11.13579            10.14329            10.88903            11.43775            11.78081            11.52926            10.39942            11.19342            11.02982            11.17902            11.44294            11.30653            11.15733            11.33856            11.08156            10.66522            11.76764            11.43618            10.79175            10.78789            11.15162            10.69242            11.49207            10.84164            10.89322            10.71574            11.32181            11.05219            11.33530            10.87439            10.13985            10.92332            11.48208            10.70510            11.11937            11.09512            11.31322            10.64934            11.08384            11.02358            11.14078            11.27346            10.73295            11.72950            11.61522            10.68073            10.63713            11.07315            11.28542            10.74138            11.47834            11.21182            10.10389            10.16090            10.63760            11.93613            11.01228            10.60492            11.46066            11.51381            11.12117            10.94108            11.24972            10.75610            11.16965            11.57920            10.53675            11.40214            10.64364            11.13659            10.68901            11.17894            11.24827            10.72608            10.78614            11.19790            10.68478            11.22265            11.19199            11.47160            10.65195            11.57250            10.74160            11.43428            10.78117            10.52981            11.16313            11.60192            11.23047            11.11206            11.18834             9.98979            11.30311            10.83253            11.82125            10.55194            11.21210            11.71664            11.92866             9.99683            11.11666            11.47332            11.50349            10.80587            10.17665            11.42426            11.61537            11.89498            10.85714            11.36767            11.34253            10.30336            11.01053            11.32992            10.22035            11.40697            11.16773            10.69542            11.13574            11.54908            11.50388            11.14759            11.11953            10.76228            11.07658            10.50755            11.83458            11.14084            11.59342            11.15752            11.22409            10.59530            10.84622            11.52030            11.48303            11.22675            11.09083            10.83545            10.82838            10.42588            11.49764            11.19951            11.57267            11.21663            11.16966            10.43825            10.80399            11.22987            11.42202            11.20477            10.76888            11.18076            10.73767            11.69753            11.15287            11.22083            10.58458            10.94426            11.14507            11.31694            10.06105            11.65483            11.15393            10.86693            11.73682            11.19560            11.12969            10.75487            11.55390            11.29957            11.15526            11.50240            10.98866            10.16581            10.74736            11.17923            11.12053            11.48480            11.00883            11.11517            11.18981            11.55069            10.61736            11.02205            11.27844            10.87964            11.56769            11.15859            10.72417            11.86392            11.18604            11.46381            10.98003            10.76742            10.85646            11.32558            11.23737            10.71940            11.06032            10.74740            10.43818            10.58146            10.83412            11.25248            11.19834            10.96330            11.14124            11.22626            10.92828            10.46931            11.19651            10.67539            10.75135            11.29593            10.99944            10.69385            10.78772            10.59945            11.57951            10.80750            11.04145            10.68030            11.47934            11.21803            11.28005            11.05939            11.21543            11.58520            11.12949            11.20923            10.73726            11.30568            11.23181            11.19232            11.09067            11.15391            10.70662            11.22297            10.56829            11.37646            10.86146            11.13364            11.18197            11.65009            10.71010            10.80735            10.74658            10.66535            10.73458            11.74780            10.90796            11.16014            11.33716            10.96784            10.10549            11.21666            11.05072            11.19641            10.73071            11.19563            11.25305            11.20487            10.90066            10.74327            11.11544            10.84432            10.50362            11.18175            10.99819            11.17154            10.69684            10.70124            11.09562            10.60351            11.00666            11.22319            11.88986            11.64572            10.64181            11.11436            11.19323            11.36559            10.58708            11.16446            10.62210            11.20564            10.04506            10.82882            11.20453            11.46379            11.23258            11.82390            11.48708            10.45925            11.84321            11.22759            11.47821            11.22971            10.88363            11.77467            11.42185            10.74905            11.13469            11.00545            11.44783            10.80437            11.34547            10.39379            10.75540            10.20032            11.69438            11.06702            11.43297            11.47300            10.74911            10.65295            10.67888            10.99184            10.62212            11.51172            10.63871            11.19448            10.81770            10.72186            11.06662            11.41344            11.22693            11.02041            10.38974            11.55644            11.25803            11.13527            10.98628            10.66604            11.15364            11.29058            11.37564            10.73500            10.87029            11.50089            11.49568            11.38744            11.58343            11.43880            10.64731            11.50998            11.23754            11.20709            10.86479            10.89839            10.38338            11.55734            11.08513            10.41301            11.02566            11.32720            10.77943            11.49805            11.31614            11.22301            11.41520            11.24747            11.13540            10.83790            11.76161            10.91147            11.22412            11.54653            10.66416            10.64409            10.59745            11.16458            11.47963            10.56716            11.10932            10.36388            11.20582            11.17522            11.49832            11.22297            10.40882            11.28203            10.20743            10.88793            11.13574            11.21638            11.13698            11.22265            11.74254            10.87839            11.28910            11.48554            11.57984            11.37659            10.82796            10.53186            11.17910            10.99242            11.48676            10.85771            11.28503            11.81277            11.19394            11.22455            10.12237            11.18068            10.62162            11.47223            10.70164            10.84891            11.13052            10.71017            11.11417            11.10007            10.58976            11.20139            11.15076            10.79201            10.71130            11.33214            11.20001            10.58368            11.23859            10.53066            11.01631            11.05990            11.22615            11.88290            10.92154            10.70299            11.30780            11.49938            10.61249            10.78603            11.05896            10.50960            11.40815            11.16722            11.29961            11.23204            11.32093            11.13498            10.89384            11.19629            10.74732            10.83911            11.50184            10.95598            10.81510            11.45410            10.71682            11.13860            11.65449            11.36721            11.18915            11.81944            10.71361            10.79195            11.33493            10.69060            10.86380            11.10799            11.08329            11.93782            10.67046            11.04807            11.47543            11.06694            11.23375            10.75511            11.23380            10.59355            11.10736            10.73669            10.46625            10.93086             9.98936            11.21842            11.36876            11.24001            11.37141            11.30394            11.46735            10.43716            11.54011            11.31669            10.69358            11.48835            10.72993            10.64295            11.32576            10.80422            11.16837            11.15491            10.86098            11.17972            11.66718            10.64649            11.20632            11.44373            11.70477            11.19213            10.74983            10.87152            10.41771            11.12703            11.44386            11.50259            11.06955            11.47142            11.01039            11.20156            11.20990            10.94711            11.28043            11.55766            10.95277            11.49890            11.25337            11.10739            10.87133            10.91629            10.59484            11.57060            11.30103            10.69544            10.76532            11.23660            11.50470            10.76525            11.46009            11.67413            11.89149            10.95880            10.56723            10.43903            11.25146            11.13267            11.37371            11.05639            11.52608            11.14713            11.15546            10.50029            11.31471            10.94509            11.35687            11.17657            10.81463            11.46941            11.15246            11.21283            10.53004            11.08681            11.13259            11.21030            10.94013            11.59512            11.58185            10.59501            11.38168            10.81579            10.97433            11.75296            10.88597            11.21407            11.45249            10.99199            11.16564            11.43710            10.60343            11.19537            10.54446            10.73666            11.22069            10.91785            11.09764            11.14703            10.39440            10.49958            10.99530            10.82156            10.95985            11.27376            10.79716            11.46544            11.13980            11.54498            10.98930            11.22704            10.03291            10.84038            10.05774            11.18741            10.90414            11.23060            10.63784            11.53485            11.26858            10.95933            11.17627            10.82905            10.46899            11.68860            10.56785            11.49262            11.23569            10.65176            10.57534            11.52294            11.14731            11.54036            11.12340            10.64088            10.52914            10.71552            10.86161            11.16902            11.28033            10.94174            10.76737            11.51769            11.17352            10.56918            11.18716            11.50219            11.70536            10.71912            10.62106            10.66658            11.19587            11.43545            11.07878            11.26915            11.03317            10.42999            10.79717            11.58415            10.72509            10.68092            11.15611            11.09346            11.51393            10.74098            10.71762            10.94469            11.12968            11.20518            11.19403            10.72124            11.48327            10.77733            10.43857            11.60515            11.13226            10.60933            10.67098  