# vtk DataFile Version 3.0
d-3__ created by libgimli-v1.1.1-44-gf8b60ca0
ASCII
DATASET UNSTRUCTURED_GRID
POINTS 8806 double
0.05	0.485	-0.005
0.1	0.485	-0.005
0.15	0.485	-0.005
0.2	0.485	-0.005
0.25	0.485	-0.005
0.3	0.485	-0.005
0.35	0.485	-0.005
0.4	0.485	-0.005
0.05	0.425	-0
0.1	0.425	-0
0.15	0.425	-0
0.2	0.425	-0
0.25	0.425	-0
0.3	0.425	-0
0.35	0.425	-0
0.4	0.425	-0
0.05	0.375	-0
0.1	0.375	-0
0.15	0.375	-0
0.2	0.375	-0
0.25	0.375	-0
0.3	0.375	-0
0.35	0.375	-0
0.4	0.375	-0
0.05	0.325	-0
0.1	0.325	-0
0.15	0.325	-0
0.2	0.325	-0
0.25	0.325	-0
0.3	0.325	-0
0.35	0.325	-0
0.4	0.325	-0
0.05	0.275	-0
0.1	0.275	-0
0.15	0.275	-0
0.2	0.275	-0
0.25	0.275	-0
0.3	0.275	-0
0.35	0.275	-0
0.4	0.275	-0
0.05	0.225	-0
0.1	0.225	-0
0.15	0.225	-0
0.2	0.225	-0
0.25	0.225	-0
0.3	0.225	-0
0.35	0.225	-0
0.4	0.225	-0
0.05	0.175	-0
0.1	0.175	-0
0.15	0.175	-0
0.2	0.175	-0
0.25	0.175	-0
0.3	0.175	-0
0.35	0.175	-0
0.4	0.175	-0
0.05	0.125	-0
0.1	0.125	-0
0.15	0.125	-0
0.2	0.125	-0
0.25	0.125	-0
0.3	0.125	-0
0.35	0.125	-0
0.4	0.125	-0
0.05	0.075	-0
0.1	0.075	-0
0.15	0.075	-0
0.2	0.075	-0
0.25	0.075	-0
0.3	0.075	-0
0.35	0.075	-0
0.4	0.075	-0
0	0	-0
0.45	0	-0
0	0.5	-0
0.45	0.5	-0
0	0	-0.03
0.45	0	-0.03
0	0.5	-0.03
0.45	0.5	-0.03
0.025	0.05	-0
0.041666667	0.05	-0
0.058333333	0.05	-0
0.075	0.05	-0
0.091666667	0.05	-0
0.108333333	0.05	-0
0.125	0.05	-0
0.141666667	0.05	-0
0.158333333	0.05	-0
0.175	0.05	-0
0.191666667	0.05	-0
0.208333333	0.05	-0
0.225	0.05	-0
0.241666667	0.05	-0
0.258333333	0.05	-0
0.275	0.05	-0
0.291666667	0.05	-0
0.308333333	0.05	-0
0.325	0.05	-0
0.341666667	0.05	-0
0.358333333	0.05	-0
0.375	0.05	-0
0.391666667	0.05	-0
0.408333333	0.05	-0
0.425	0.05	-0
0.025	0.1	-0
0.041666667	0.1	-0
0.058333333	0.1	-0
0.075	0.1	-0
0.091666667	0.1	-0
0.108333333	0.1	-0
0.125	0.1	-0
0.141666667	0.1	-0
0.158333333	0.1	-0
0.175	0.1	-0
0.191666667	0.1	-0
0.208333333	0.1	-0
0.225	0.1	-0
0.241666667	0.1	-0
0.258333333	0.1	-0
0.275	0.1	-0
0.291666667	0.1	-0
0.308333333	0.1	-0
0.325	0.1	-0
0.341666667	0.1	-0
0.358333333	0.1	-0
0.375	0.1	-0
0.391666667	0.1	-0
0.408333333	0.1	-0
0.425	0.1	-0
0.025	0.15	-0
0.041666667	0.15	-0
0.058333333	0.15	-0
0.075	0.15	-0
0.091666667	0.15	-0
0.108333333	0.15	-0
0.125	0.15	-0
0.141666667	0.15	-0
0.158333333	0.15	-0
0.175	0.15	-0
0.191666667	0.15	-0
0.208333333	0.15	-0
0.225	0.15	-0
0.241666667	0.15	-0
0.258333333	0.15	-0
0.275	0.15	-0
0.291666667	0.15	-0
0.308333333	0.15	-0
0.325	0.15	-0
0.341666667	0.15	-0
0.358333333	0.15	-0
0.375	0.15	-0
0.391666667	0.15	-0
0.408333333	0.15	-0
0.425	0.15	-0
0.025	0.2	-0
0.041666667	0.2	-0
0.058333333	0.2	-0
0.075	0.2	-0
0.091666667	0.2	-0
0.108333333	0.2	-0
0.125	0.2	-0
0.141666667	0.2	-0
0.158333333	0.2	-0
0.175	0.2	-0
0.191666667	0.2	-0
0.208333333	0.2	-0
0.225	0.2	-0
0.241666667	0.2	-0
0.258333333	0.2	-0
0.275	0.2	-0
0.291666667	0.2	-0
0.308333333	0.2	-0
0.325	0.2	-0
0.341666667	0.2	-0
0.358333333	0.2	-0
0.375	0.2	-0
0.391666667	0.2	-0
0.408333333	0.2	-0
0.425	0.2	-0
0.025	0.25	-0
0.041666667	0.25	-0
0.058333333	0.25	-0
0.075	0.25	-0
0.091666667	0.25	-0
0.108333333	0.25	-0
0.125	0.25	-0
0.141666667	0.25	-0
0.158333333	0.25	-0
0.175	0.25	-0
0.191666667	0.25	-0
0.208333333	0.25	-0
0.225	0.25	-0
0.241666667	0.25	-0
0.258333333	0.25	-0
0.275	0.25	-0
0.291666667	0.25	-0
0.308333333	0.25	-0
0.325	0.25	-0
0.341666667	0.25	-0
0.358333333	0.25	-0
0.375	0.25	-0
0.391666667	0.25	-0
0.408333333	0.25	-0
0.425	0.25	-0
0.025	0.3	-0
0.041666667	0.3	-0
0.058333333	0.3	-0
0.075	0.3	-0
0.091666667	0.3	-0
0.108333333	0.3	-0
0.125	0.3	-0
0.141666667	0.3	-0
0.158333333	0.3	-0
0.175	0.3	-0
0.191666667	0.3	-0
0.208333333	0.3	-0
0.225	0.3	-0
0.241666667	0.3	-0
0.258333333	0.3	-0
0.275	0.3	-0
0.291666667	0.3	-0
0.308333333	0.3	-0
0.325	0.3	-0
0.341666667	0.3	-0
0.358333333	0.3	-0
0.375	0.3	-0
0.391666667	0.3	-0
0.408333333	0.3	-0
0.425	0.3	-0
0.025	0.35	-0
0.041666667	0.35	-0
0.058333333	0.35	-0
0.075	0.35	-0
0.091666667	0.35	-0
0.108333333	0.35	-0
0.125	0.35	-0
0.141666667	0.35	-0
0.158333333	0.35	-0
0.175	0.35	-0
0.191666667	0.35	-0
0.208333333	0.35	-0
0.225	0.35	-0
0.241666667	0.35	-0
0.258333333	0.35	-0
0.275	0.35	-0
0.291666667	0.35	-0
0.308333333	0.35	-0
0.325	0.35	-0
0.341666667	0.35	-0
0.358333333	0.35	-0
0.375	0.35	-0
0.391666667	0.35	-0
0.408333333	0.35	-0
0.425	0.35	-0
0.025	0.4	-0
0.041666667	0.4	-0
0.058333333	0.4	-0
0.075	0.4	-0
0.091666667	0.4	-0
0.108333333	0.4	-0
0.125	0.4	-0
0.141666667	0.4	-0
0.158333333	0.4	-0
0.175	0.4	-0
0.191666667	0.4	-0
0.208333333	0.4	-0
0.225	0.4	-0
0.241666667	0.4	-0
0.258333333	0.4	-0
0.275	0.4	-0
0.291666667	0.4	-0
0.308333333	0.4	-0
0.325	0.4	-0
0.341666667	0.4	-0
0.358333333	0.4	-0
0.375	0.4	-0
0.391666667	0.4	-0
0.408333333	0.4	-0
0.425	0.4	-0
0.025	0.45	-0
0.041666667	0.45	-0
0.058333333	0.45	-0
0.075	0.45	-0
0.091666667	0.45	-0
0.108333333	0.45	-0
0.125	0.45	-0
0.141666667	0.45	-0
0.158333333	0.45	-0
0.175	0.45	-0
0.191666667	0.45	-0
0.208333333	0.45	-0
0.225	0.45	-0
0.241666667	0.45	-0
0.258333333	0.45	-0
0.275	0.45	-0
0.291666667	0.45	-0
0.308333333	0.45	-0
0.325	0.45	-0
0.341666667	0.45	-0
0.358333333	0.45	-0
0.375	0.45	-0
0.391666667	0.45	-0
0.408333333	0.45	-0
0.425	0.45	-0
0.025	0.49	-0
0.041666667	0.49	-0
0.058333333	0.49	-0
0.075	0.49	-0
0.091666667	0.49	-0
0.108333333	0.49	-0
0.125	0.49	-0
0.141666667	0.49	-0
0.158333333	0.49	-0
0.175	0.49	-0
0.191666667	0.49	-0
0.208333333	0.49	-0
0.225	0.49	-0
0.241666667	0.49	-0
0.258333333	0.49	-0
0.275	0.49	-0
0.291666667	0.49	-0
0.308333333	0.49	-0
0.325	0.49	-0
0.341666667	0.49	-0
0.358333333	0.49	-0
0.375	0.49	-0
0.391666667	0.49	-0
0.408333333	0.49	-0
0.425	0.49	-0
0.01	0	0
0.02	0	0
0.03	0	0
0.04	0	0
0.05	0	0
0.06	0	0
0.07	0	0
0.08	0	0
0.09	0	0
0.1	0	0
0.11	0	0
0.12	0	0
0.13	0	0
0.14	0	0
0.15	0	0
0.16	0	0
0.17	0	0
0.18	0	0
0.19	0	0
0.199999999999	0	0
0.209999999999	0	0
0.219999999999	0	0
0.229999999999	0	0
0.239999999999	0	0
0.249999999999	0	0
0.259999999999	0	0
0.27	0	0
0.28	0	0
0.29	0	0
0.3	0	0
0.31	0	0
0.32	0	0
0.33	0	0
0.34	0	0
0.35	0	0
0.36	0	0
0.37	0	0
0.38	0	0
0.39	0	0
0.4	0	0
0.41	0	0
0.42	0	0
0.43	0	0
0.44	0	0
0.45	0.01	0
0.45	0.02	0
0.45	0.03	0
0.45	0.04	0
0.45	0.05	0
0.45	0.06	0
0.45	0.07	0
0.45	0.08	0
0.45	0.09	0
0.45	0.1	0
0.45	0.11	0
0.45	0.12	0
0.45	0.13	0
0.45	0.14	0
0.45	0.15	0
0.45	0.16	0
0.45	0.17	0
0.45	0.18	0
0.45	0.19	0
0.45	0.199999999999	0
0.45	0.209999999999	0
0.45	0.219999999999	0
0.45	0.229999999999	0
0.45	0.239999999999	0
0.45	0.249999999999	0
0.45	0.259999999999	0
0.45	0.269999999999	0
0.45	0.279999999999	0
0.45	0.289999999999	0
0.45	0.299999999999	0
0.45	0.309999999999	0
0.45	0.32	0
0.45	0.33	0
0.45	0.34	0
0.45	0.35	0
0.45	0.36	0
0.45	0.37	0
0.45	0.38	0
0.45	0.39	0
0.45	0.4	0
0.45	0.41	0
0.45	0.42	0
0.45	0.43	0
0.45	0.44	0
0.45	0.45	0
0.45	0.46	0
0.45	0.47	0
0.45	0.48	0
0.45	0.49	0
0.44	0.5	0
0.43	0.5	0
0.42	0.5	0
0.41	0.5	0
0.4	0.5	0
0.39	0.5	0
0.38	0.5	0
0.37	0.5	0
0.36	0.5	0
0.35	0.5	0
0.34	0.5	0
0.33	0.5	0
0.32	0.5	0
0.31	0.5	0
0.3	0.5	0
0.29	0.5	0
0.28	0.5	0
0.27	0.5	0
0.26	0.5	0
0.25	0.5	0
0.240000000001	0.5	0
0.230000000001	0.5	0
0.220000000001	0.5	0
0.210000000001	0.5	0
0.200000000001	0.5	0
0.19	0.5	0
0.18	0.5	0
0.17	0.5	0
0.16	0.5	0
0.15	0.5	0
0.14	0.5	0
0.13	0.5	0
0.12	0.5	0
0.11	0.5	0
0.1	0.5	0
0.09	0.5	0
0.08	0.5	0
0.07	0.5	0
0.06	0.5	0
0.05	0.5	0
0.04	0.5	0
0.03	0.5	0
0.02	0.5	0
0.01	0.5	0
0	0.49	0
0	0.48	0
0	0.47	0
0	0.46	0
0	0.45	0
0	0.44	0
0	0.43	0
0	0.42	0
0	0.41	0
0	0.4	0
0	0.39	0
0	0.38	0
0	0.37	0
0	0.36	0
0	0.35	0
0	0.34	0
0	0.33	0
0	0.320000000001	0
0	0.310000000001	0
0	0.300000000001	0
0	0.290000000001	0
0	0.280000000001	0
0	0.270000000001	0
0	0.260000000001	0
0	0.250000000001	0
0	0.240000000001	0
0	0.230000000001	0
0	0.220000000001	0
0	0.210000000001	0
0	0.200000000001	0
0	0.190000000001	0
0	0.180000000001	0
0	0.170000000001	0
0	0.160000000001	0
0	0.150000000001	0
0	0.140000000001	0
0	0.130000000001	0
0	0.12	0
0	0.11	0
0	0.1	0
0	0.09	0
0	0.08	0
0	0.07	0
0	0.06	0
0	0.05	0
0	0.04	0
0	0.03	0
0	0.02	0
0	0.01	0
0.45	0.01	-0.03
0.45	0.02	-0.03
0.45	0.03	-0.03
0.45	0.04	-0.03
0.45	0.05	-0.03
0.45	0.06	-0.03
0.45	0.07	-0.03
0.45	0.08	-0.03
0.45	0.09	-0.03
0.45	0.1	-0.03
0.45	0.11	-0.03
0.45	0.12	-0.03
0.45	0.13	-0.03
0.45	0.14	-0.03
0.45	0.15	-0.03
0.45	0.16	-0.03
0.45	0.17	-0.03
0.45	0.18	-0.03
0.45	0.19	-0.03
0.45	0.199999999999	-0.03
0.45	0.209999999999	-0.03
0.45	0.219999999999	-0.03
0.45	0.229999999999	-0.03
0.45	0.239999999999	-0.03
0.45	0.249999999999	-0.03
0.45	0.259999999999	-0.03
0.45	0.269999999999	-0.03
0.45	0.279999999999	-0.03
0.45	0.289999999999	-0.03
0.45	0.299999999999	-0.03
0.45	0.309999999999	-0.03
0.45	0.32	-0.03
0.45	0.33	-0.03
0.45	0.34	-0.03
0.45	0.35	-0.03
0.45	0.36	-0.03
0.45	0.37	-0.03
0.45	0.38	-0.03
0.45	0.39	-0.03
0.45	0.4	-0.03
0.45	0.41	-0.03
0.45	0.42	-0.03
0.45	0.43	-0.03
0.45	0.44	-0.03
0.45	0.45	-0.03
0.45	0.46	-0.03
0.45	0.47	-0.03
0.45	0.48	-0.03
0.45	0.49	-0.03
0.44	0.5	-0.03
0.43	0.5	-0.03
0.42	0.5	-0.03
0.41	0.5	-0.03
0.4	0.5	-0.03
0.39	0.5	-0.03
0.38	0.5	-0.03
0.37	0.5	-0.03
0.36	0.5	-0.03
0.35	0.5	-0.03
0.34	0.5	-0.03
0.33	0.5	-0.03
0.32	0.5	-0.03
0.31	0.5	-0.03
0.3	0.5	-0.03
0.29	0.5	-0.03
0.28	0.5	-0.03
0.27	0.5	-0.03
0.26	0.5	-0.03
0.25	0.5	-0.03
0.240000000001	0.5	-0.03
0.230000000001	0.5	-0.03
0.220000000001	0.5	-0.03
0.210000000001	0.5	-0.03
0.200000000001	0.5	-0.03
0.19	0.5	-0.03
0.18	0.5	-0.03
0.17	0.5	-0.03
0.16	0.5	-0.03
0.15	0.5	-0.03
0.14	0.5	-0.03
0.13	0.5	-0.03
0.12	0.5	-0.03
0.11	0.5	-0.03
0.1	0.5	-0.03
0.09	0.5	-0.03
0.08	0.5	-0.03
0.07	0.5	-0.03
0.06	0.5	-0.03
0.05	0.5	-0.03
0.04	0.5	-0.03
0.03	0.5	-0.03
0.02	0.5	-0.03
0.01	0.5	-0.03
0	0.49	-0.03
0	0.48	-0.03
0	0.47	-0.03
0	0.46	-0.03
0	0.45	-0.03
0	0.44	-0.03
0	0.43	-0.03
0	0.42	-0.03
0	0.41	-0.03
0	0.4	-0.03
0	0.39	-0.03
0	0.38	-0.03
0	0.37	-0.03
0	0.36	-0.03
0	0.35	-0.03
0	0.34	-0.03
0	0.33	-0.03
0	0.320000000001	-0.03
0	0.310000000001	-0.03
0	0.300000000001	-0.03
0	0.290000000001	-0.03
0	0.280000000001	-0.03
0	0.270000000001	-0.03
0	0.260000000001	-0.03
0	0.250000000001	-0.03
0	0.240000000001	-0.03
0	0.230000000001	-0.03
0	0.220000000001	-0.03
[...]
CELL_DATA 32928
SCALARS _Attribute double 1
LOOKUP_TABLE default
13.410101699439 12.097793623505 12.996168663009 11.756891078948 12.405165731745 13.089965806144 15.877494696722 12.889355988224 16.454602401163 12.199213797825 12.801172057699 16.140885169522 12.870974066609 12.219767674234 13.29494357194 15.471000968161 11.567929583389 13.003055965311 13.790215882725 13.289899481978 12.014100106135 10.017372921355 13.311560386127 16.046021998606 13.308811420931 12.129910104843 14.300420699142 13.9883270416 11.956273291189 14.219510553138 12.337921413671 14.303291660944 13.842111216414 12.839497182673 13.910798437385 11.070965491248 19.807445086742 12.832075286721 11.144501339364 12.541837658192 12.172303838041 13.508255862559 9.7144817806222 12.570124951201 19.742603846927 12.639516110086 19.159642494456 13.093809727732 14.540146717362 11.80115438285 14.287728407372 13.021201434599 14.494855576169 12.534340705668 13.038563839683 11.253056036662 11.66124302286 12.768514670595 10.771384783624 11.19711938808 12.489014753434 12.599334040824 12.587723795148 13.700688684918 14.594226758674 13.63202255465 13.453329485859 12.157597017526 12.417912584972 11.580354180932 11.990275608858 10.966088734044 13.776903238533 13.88230880273 11.080345265285 14.815760288867 13.254646802715 13.598110920064 13.548596646164 13.312061329826 11.859435363644 13.169569558904 16.144547780143 13.30582948103 15.872338583755 19.473286131496 14.763160607397 12.298519655932 11.824183869858 14.276618999076 17.241255400874 12.588425930706 11.261291868816 11.506349724818 20.659277221271 11.619430768981 16.611076931166 12.490150587128 14.283613744432 12.560984047465 12.043640118734 12.217935202796 16.457848407917 11.843643061814 13.027608901804 12.591646358846 12.360176319955 13.74432942989 11.894014801263 13.084208413438 16.661029272688 13.123023380732 12.281079122837 13.183737636824 18.956538610933 16.314113628972 13.655606684029 12.267675601694 15.455145932012 17.121971004792 10.704138348262 12.044301000829 19.820699380914 14.528068609157 11.392041276369 13.362379313566 12.418421034996 11.889790614551 15.601217202043 13.472629160805 14.152894677248 11.23623655687 17.424518523751 13.40976876014 12.149693570493 12.914454902584 11.828634531367 11.913886599897 11.25882604573 13.841236599753 14.598274878511 12.967354187577 11.76190147202 11.069607422956 11.940062387544 12.889724658219 12.076061698469 13.183505441619 13.959632600751 11.894844097455 11.411332103084 14.919106954805 13.219400107363 13.301857311764 13.296966187343 10.055603709712 13.74469093879 13.301515158917 13.166212364481 13.358317958159 14.153224647774 12.954403202303 11.203313339293 12.389025705535 12.106009681546 13.335250431045 10.249880336324 12.39693664607 16.063915188386 11.528397103401 20.104600179346 11.084215604544 11.497754621071 13.246368264631 13.350806789717 14.236134320087 12.973208482296 9.0694633980825 12.821469603027 19.79971617048 11.53726937741 13.030970118257 15.170973078896 15.19316034695 12.687823755181 13.183311924524 10.494669628331 12.689237699936 12.177688725011 13.124593546516 14.576939845108 8.202895491835 12.96435345661 10.07115100235 12.140061877796 12.994592498812 11.738279989916 14.377383791288 13.951811195055 13.424428224718 11.691375806746 12.453855544363 15.633712265227 12.160677473447 10.445499406702 17.095920902673 15.754705213896 13.155758983888 11.452117009754 13.718912929336 14.15941435656 12.473263350395 9.9058145358446 12.569361868654 14.277989086969 13.045283878222 13.063274463338 11.311178222606 13.468153577787 14.237256151595 13.338775420392 13.317252522336 13.359332844368 13.43291906433 13.670965773254 11.552487403217 13.063514733406 10.055397687793 16.780263823311 12.900308968002 12.971540002502 12.278567813374 9.741842408705 14.473986598721 14.993845939393 12.73661431673 12.196904809664 13.553913000212 11.393313102866 11.798129531411 12.116419341252 11.226435352819 12.846154853218 12.609353322272 11.336902037146 14.168205216753 19.862803613106 13.620520526147 13.602206911774 12.744230448955 12.14172953427 15.687190992665 11.223263747525 12.3714172959 12.115968095585 13.17255994869 16.443636559146 12.118471512141 15.761361835305 13.177393621726 17.81900450467 12.727389024916 16.718889892324 12.196514937584 16.451301988207 29.547079466667 9.4418196314235 11.705164826116 12.748249409838 13.495357786817 9.8795480141761 17.236145078318 11.013294573092 13.213176325218 11.896535503813 12.431703118702 11.961770898036 12.911096450618 14.987229877428 18.628658281523 8.541956971717 11.791089119179 14.654514584783 7.6789653164702 13.811852422359 11.537585508604 12.308039747172 12.029636750754 11.453282579571 13.543396705634 14.930518013894 11.925715089129 13.427061968418 13.408192532081 16.218817410975 11.872886103931 12.983386346928 16.37480641776 13.433352722509 15.613835311395 20.40055609882 13.237460554679 12.345206579376 11.271969051097 13.727556434196 12.313160841523 13.495874811525 12.714795322333 13.945635651216 14.591880448437 19.927143386227 11.540065843629 11.457870806087 10.606906501319 15.729107153331 14.185115814933 12.129257950101 12.674393705522 11.424326611232 13.397765905611 27.028624851416 14.474073215235 21.654487754318 10.113012685595 12.299320154044 13.338992366845 13.056184890778 12.554910116962 11.453293065986 20.617274736986 15.564136979831 11.406344202083 7.3650443968712 20.056058214436 13.779184234486 11.511772728198 12.91172418087 13.926144871946 15.942220422591 12.171459667966 12.382672136425 11.008249644958 12.970777205924 13.064254354843 7.4080531832436 9.973963203999 12.355596989759 14.557069217481 15.401385140114 13.88071821819 15.743904804676 14.443207162043 12.679699457555 13.3864744743 14.747921911054 14.476042441353 20.138659316885 11.370245933638 13.403295884484 12.879342759238 12.584617192395 12.396067040591 12.111120309124 12.216814703922 13.365986263824 12.552274196201 13.659238000871 12.907192963481 11.912741887846 12.745307087605 12.811055752957 12.947507615388 12.631537393731 12.067417913048 12.921905538271 13.014044818754 12.185962813636 19.67458627237 11.514379256196 15.803412092354 11.840890073158 10.760230519234 15.98887273849 10.513311443652 13.041206813975 13.865115883466 10.726460976491 14.201345059199 13.856286960361 13.441823350248 12.46376535838 13.611425775593 12.923679985671 12.657661120682 11.096324041844 10.566182616455 12.204756910134 13.396528646534 13.283139516901 13.762203487839 11.486602426471 11.691042619697 12.967854041807 12.97019833059 11.577951101398 10.519113947677 12.526152692671 15.952826860029 11.263876114783 17.219736136913 13.059189303428 13.684039232297 20.05676558981 11.717204876836 13.120092375749 13.323118216312 12.971305532842 10.364375034177 11.84459706865 12.736961268817 11.734343268366 13.937981486517 12.13104956666 14.339153593713 11.618951870235 13.410726767526 13.479464998342 15.661225722373 14.381358078558 12.281097879699 11.63228715954 11.123283194332 14.225315342994 12.8252876909 13.85350794244 12.350524241679 8.9242105647071 12.798683099098 11.544042619124 11.61243781297 10.76135784766 12.251580620626 11.019379207807 11.762019738375 13.526579592476 15.027460347867 13.113393046986 13.781954864777 12.469783944278 13.50701975737 14.298310245227 14.456621590751 12.928756209505 17.166570651473 16.646190918803 11.730813940126 12.043432993533 10.091680030546 12.252895462683 13.629378539049 12.965935792889 10.477178872885 13.441934829125 7.4992911004716 13.813921077742 11.20473538594 12.239060816498 15.077994070414 11.178549036683 14.458713882005 11.198599868011 14.553366328041 13.908825122573 13.163738891732 13.733595343452 12.557961535537 20.018577519668 13.135945886133 12.704401983548 21.53694548559 18.523702902355 12.316441821468 13.435665785227 11.733627872054 12.731427759259 13.366404830599 12.131876843586 13.154309960142 11.436530692172 13.262585072665 11.413659759966 14.763384786469 13.580309268827 11.188593188168 11.207371070096 13.293676537133 13.098699146192 15.241519100963 11.581197734525 12.933230986336 11.635909138964 12.81910928039 12.746108546616 12.927163299068 13.558486185445 15.847367487161 12.050335124947 12.235366705159 14.704283319798 13.071312641714 11.388348823849 11.623226238862 13.536432635275 12.565665419899 11.618006453229 9.6670849122676 13.502255868662 12.900378970899 12.415892390573 13.722727751672 13.818796427283 14.478828155405 13.988727350582 12.900212143892 16.748903774742 12.709060457071 16.566624524078 13.516380740565 12.138666479118 25.551206987118 15.655413848827 13.173555890572 15.077225267545 13.697311862129 27.962720397977 19.899058765482 12.899406323236 13.613509707996 14.071925120647 12.843417312772 12.261507375367 12.950570929819 15.281319509726 12.977127691835 12.673492425088 13.373995627477 17.187390717243 9.7841923066785 13.386954006273 16.08819192047 10.558197803515 13.071158981769 12.601004507616 12.949770493964 11.778298115071 12.35976101635 17.758553867302 12.853950082054 14.586367381261 12.396008169029 13.322940767598 12.614711629677 12.826533657556 10.050130723034 13.571989572532 14.671584759819 13.61280760386 14.119549245311 12.112380289056 26.641300654371 13.931745128738 13.338379307029 12.042029214739 13.75022964531 12.719494445344 13.226550309893 13.902048459271 12.767807269574 11.940076306657 13.425109184948 13.736731685591 13.207735695678 15.807887421131 12.684915548763 10.530886586826 28.345926627284 11.672599841071 12.177181466581 11.4212025827 13.933230634737 17.12405636995 11.512317681123 12.852847335263 12.097763588336 9.0685801437662 13.225101619787 12.615802073426 12.86834011392 12.852230362059 12.155260004215 15.687321804781 12.757595695495 13.680237805318 11.022824776737 11.268299630793 13.837443914634 11.011967151212 17.784117571262 12.733790321691 15.59961247998 13.686020635594 13.582974064081 13.447989506637 12.674061328454 11.800604713806 13.541833843499 11.419687709457 11.294886685645 12.085932389582 11.477579238522 13.691773550503 13.153690072602 12.441407339329 13.033384564512 13.155813757667 13.575990336015 12.612576751833 14.398103808793 10.920887965783 12.237944807217 7.4104271657913 14.829311791604 12.464169326047 14.789569967085 12.930763855061 12.157830742059 9.5310713250057 12.3410879369 13.219506168067 15.14803438093 12.207807703462 11.679294828822 13.204716369489 12.613283729658 13.604788537225 10.477429366185 13.550306142692 14.639234027292 13.379997894044 13.150766178039 13.068962553659 13.982997664812 10.856898411695 12.037474516047 13.179535261003 16.557045266899 12.348652338213 19.155557844682 24.014345806567 6.5604172103323 17.261824361042 19.439926220339 13.237629419189 12.15245730675 13.386299200549 13.661053024329 13.217514321833 12.943725180995 17.196140624738 11.757004337758 12.834625952764 12.4358090257 13.036636393087 11.23111072128 13.441070397941 11.267294602486 13.336876862533 13.509103838294 19.529316809636 11.738819820269 13.623000097916 13.376804758062 15.196630443763 12.893662866872 12.531800095613 10.998845139361 12.180818221169 10.515842976989 12.464463043167 15.676862118061 14.605616273158 15.969007056811 11.757407093849 16.020405365725 12.282714515581 12.054684354514 11.359601066029 13.378117311523 14.595333513629 27.76583589819 14.095971335323 12.57146918497 12.229109514018 16.354581963454 13.056568489061 13.555757516856 13.797378016458 13.127640438395 11.819305774064 12.671549511434 15.187054559118 12.151954630407 11.129020074468 13.773835214808 12.268861168207 19.869287256187 10.358213086645 11.15866620454 13.617817851519 13.147064885255 13.704180767458 18.253533543938 12.448111206285 14.689254208938 13.897892742578 13.225475580656 13.12509371064 11.957142449977 12.902106077236 16.912823497911 13.173648149664 11.921982623729 11.471284721794 33.838169089072 13.662298374987 13.884269101712 11.650113039142 12.263202120053 7.7720664217523 13.035974342152 13.033587387338 15.706103899893 11.159436098979 11.856485441064 13.180537971217 16.869124769692 12.226583368313 12.643527268703 16.993021404059 10.76867297084 13.963686035691 11.946602954368 15.441912947051 10.223201195808 15.184892185457 13.535529814402 17.609098737377 10.739424434651 17.034194260552 13.293656244588 13.418026661244 15.205857489135 13.486677130763 13.241216169275 12.940860038604 12.720877637357 15.994032438133 13.827726998031 11.832533557469 11.840928630876 11.518941401149 11.360119839825 17.295144159064 17.577135860705 13.053629492664 13.828570425453 14.805593744795 17.460869503233 9.8948690091607 13.163335928264 7.2372446524996 12.730132761054 12.19280742505 12.40334866939 10.659058555274 12.841273784437 15.162455332782 13.608344431403 15.780076147387 16.281257107215 13.020309939875 14.243780096661 13.77025477436 13.233323725269 12.16983602674 12.108607289141 20.132495396054 12.887381127892 17.200882420879 15.458814302642 12.046192645896 8.2298267792965 10.965512740849 16.44187263184 15.844066328619 15.360676964544 13.145585710529 13.290846912639 12.166593992074 9.8808364817522 13.421002490163 13.302221605814 16.029459660535 21.357030697047 13.171412181982 11.813109956865 11.677748089082 13.018502621381 12.952447286249 11.812001309161 12.967626280595 12.457160263192 13.250057682916 13.398012944354 13.99864313315 17.442525863852 11.267542873124 13.456293690175 12.660031143947 14.801929316579 13.679864065368 19.558240391301 15.093010848708 16.728602964146 10.795260941005 11.810844700543 12.279326733724 17.108636578411 12.638131349654 12.484955121631 14.797022343309 15.348814665552 13.22291629562 13.080101264215 12.784788527999 12.201715174374 13.615842020171 10.607439577869 15.559699413097 12.889850987644 12.152523963734 13.955351978338 11.847177244094 11.840721844879 12.444448893146 13.684068552383 13.226800467397 12.850721340109 11.935670231441 12.943920800689 12.218137271929 13.174530244331 11.493342667854 13.303941639331 12.076013563295 9.6776372911414 12.433722348522 16.969723511407 11.953592274848 12.872109980638 12.967803524605 11.154546000029 13.220769029408 15.262184029017 13.109780007097 11.153673367102 11.743700326542 12.401442657095 11.639731696474 13.155731031514 13.212207962888 12.702317779517 13.456876162593 13.396141073327 15.050084620371 11.924486442584 11.72098619395 12.791162314496 12.821148133607 12.869707514845 13.086403203749 8.9879877036593 12.577041014105 14.73706983543 11.049340633382 13.462970644673 16.169711302319 13.508477850906 13.466819151036 11.961560462839 16.421959304296 14.71736911849 13.187156624949 11.654182413951 16.186737967857 15.782439674204 15.248691391707 8.510706165224 12.343473145013 15.195701853115 13.124810471468 15.235643740728 13.302079468675 14.686633969953 14.479730093293 12.309171232157 13.036359389854 20.889955871509 13.120856008068 11.421049733809 13.28788794281 13.479006693855 18.726116565083 12.8788056215 12.579555660439 12.34815787518 12.497192155513 11.022145487998 12.053177564322 15.624946349724 8.9797313437568 13.372335675372 11.976295951924 20.364518979055 11.992179998108 11.428340358084 17.532444211462 19.429608676412 13.605597159294 14.598562024766 12.176047497304 10.604501403495 11.955596986628 12.923266260103 11.949195686885 13.514733695758 12.617523514555 13.232488033932 11.197606524009 15.49549584382 15.260267133202 14.496494553017 15.300560773055 10.650972819384 14.355057799235 14.031559940175 12.613511682601 13.12053429872 11.855734363296 26.88152747378 17.830401830058 9.4409893317974 13.516656779861 12.579688570363 16.823111293729 17.019503608546 13.229281497876 13.144410996878 14.978226895047 12.739268981374 12.828508223174 13.156048481155 17.252026722657 13.814919665697 17.802354729003 14.540638102619 20.004906078309 10.773748483439 13.083070040413 12.876978511204 10.800568394408 12.125566578505 12.92249111228 16.939162554824 16.410058570601 17.813273619426 10.967312230311 13.5161549622 20.631330723812 16.024774609637 12.459595252985 8.444318242722 18.491890271396 19.180163331724 12.504616790453 14.768621045627 11.90678648684 13.652527494461 11.817563869706 15.644257303665 12.417674361078 13.597505951168 12.442470560518 13.27985890743 13.347910440215 12.234405998164 13.907899539251 13.617780740549 12.039551229814 16.292921271112 13.423406853083 14.399499079194 11.082575723918 13.221628906768 12.178799183121 12.482185492651 12.117278005472 12.536732235045 12.740972858893 12.080008057542 8.9219886789041 11.765683689301 16.41838342649 9.8345701412856 12.858509842391 12.017297040066 12.249300231726 15.539605295065 13.564166368931 12.840554591929 17.418052073039 13.293521627574 18.527780935811 13.058625578616 17.248464907151 11.820182273236 13.130293138624 13.436974324766 12.119179471224 14.139498055681 12.357457721146 12.885320600729 12.562348656269 12.141697755342 11.777139874945 10.45616469114 7.1862439071692 11.743814130898 12.642747421807 12.195096982826 13.470100606579 20.374025350745 12.351846436905 11.214292076454 9.4457997007053 11.702038765102 10.078100430897 14.057926222517 5.7713748531313 12.864753254674 13.45986021343 12.800383357196 16.209252094836 12.834687907767 11.055178358059 11.943554391712 11.689336171983 11.38057331812 13.256666217047 12.562690472392 11.550883213851 12.519756978733 14.564568459725 12.254956630069 12.085987439695 10.998916105481 11.130698867965 10.499448746744 17.190752455844 13.33249976568 13.187017024853 7.5230812051231 12.152583696002 9.480067507853 11.793098984831 11.412096268373 12.922520273793 13.687053086977 12.344068177992 12.600999175731 19.410934493426 10.503001771231 14.175853851923 13.422682711494 19.464244871013 13.058523671876 12.853698434655 11.173223541347 12.47747993364 13.303640335905 10.702204721523 12.194350656781 12.251441202585 13.550064721449 13.030338012268 9.6447312046003 12.843202557904 12.446863275614 13.270229191953 13.008793016612 11.50088358136 11.100427007429 18.670173286996 13.352160495498 17.115706430313 11.936387731528 7.8884910329863 12.130411152568 12.849657558067 12.906108000518 13.198707635379 12.427712787018 13.974096143819 14.028238249338 10.183710522885 13.253771352391 13.629652453653 13.118842324603 19.60924166046 13.367836881889 13.129375909008 13.193684287425 13.490209663662 16.370467882304 15.516473435274 12.713136133359 12.741665781563 13.077718168836 12.032749118663 12.968783294413 13.004524015747 13.417734232735 11.676373202204 13.294089396733 11.905414782706 13.584216055077 13.985991971987 12.775672402117 12.67115189241 20.983099909438 13.390484055625 13.669892390277 12.959139355679 19.012188708 15.792995657026 13.10282483908 11.685394225646 17.702852630876 12.986093091489 13.131189479708 11.977247230107 12.982860419981 13.721470771993 13.19168693983 12.754911755872 19.454356814373 12.815483720352 14.686844555286 11.944694099631 14.107484787516 12.692670606916 11.979311379632 11.996634016927 12.615396562334 13.787644701705 10.914019130325 14.819891326637 20.659310750227 12.274953842108 13.137406402171 15.267457295912 10.805923643235 14.531126746438 12.433413948464 13.209131808046 13.29169252369 11.774677243794 11.915027711246 17.142161118336 12.697548390868 20.116506703369 12.287868253519 13.790893171454 13.476569242976 17.2606010116 19.961857080303 12.129303818479 12.301251591608 14.597082716487 10.638670639833 12.139657825679 13.379603158012 12.9441075995 13.357856872208 12.481155272103 11.740559644599 14.462088320019 10.650412958735 20.097876568973 12.162779432209 12.51480661981 13.824146932925 13.140496479984 12.541150314846 13.997316618136 13.711033750372 13.808934281818 11.993971439635 8.2329164307073 17.245203729678 12.255856971769 13.406282815087 9.5938826034974 12.593288017736 14.584261003032 14.114533566321 12.273385273453 10.656452923253 13.297895398976 13.775038706676 10.615508245784 11.466289444797 12.804477203961 14.886825809575 12.411073185772 13.337964398112 10.04439749851 12.853860945557 10.600699660722 13.797973738661 14.239039639963 12.709049704167 13.120145724346 13.410383210482 12.316747132655 12.768992231502 11.380520345418 12.957805546735 11.165223391623 12.578797558319 14.644878978547 13.376506510266 15.221703214718 13.1366279