# vtk DataFile Version 3.0
d-3__ created by libgimli-v1.1.1-44-gf8b60ca0
ASCII
DATASET UNSTRUCTURED_GRID
POINTS 8806 double
0.05	0.485	-0.005
0.1	0.485	-0.005
0.15	0.485	-0.005
0.2	0.485	-0.005
0.25	0.485	-0.005
0.3	0.485	-0.005
0.35	0.485	-0.005
0.4	0.485	-0.005
0.05	0.425	-0
0.1	0.425	-0
0.15	0.425	-0
0.2	0.425	-0
0.25	0.425	-0
0.3	0.425	-0
0.35	0.425	-0
0.4	0.425	-0
0.05	0.375	-0
0.1	0.375	-0
0.15	0.375	-0
0.2	0.375	-0
0.25	0.375	-0
0.3	0.375	-0
0.35	0.375	-0
0.4	0.375	-0
0.05	0.325	-0
0.1	0.325	-0
0.15	0.325	-0
0.2	0.325	-0
0.25	0.325	-0
0.3	0.325	-0
0.35	0.325	-0
0.4	0.325	-0
0.05	0.275	-0
0.1	0.275	-0
0.15	0.275	-0
0.2	0.275	-0
0.25	0.275	-0
0.3	0.275	-0
0.35	0.275	-0
0.4	0.275	-0
0.05	0.225	-0
0.1	0.225	-0
0.15	0.225	-0
0.2	0.225	-0
0.25	0.225	-0
0.3	0.225	-0
0.35	0.225	-0
0.4	0.225	-0
0.05	0.175	-0
0.1	0.175	-0
0.15	0.175	-0
0.2	0.175	-0
0.25	0.175	-0
0.3	0.175	-0
0.35	0.175	-0
0.4	0.175	-0
0.05	0.125	-0
0.1	0.125	-0
0.15	0.125	-0
0.2	0.125	-0
0.25	0.125	-0
0.3	0.125	-0
0.35	0.125	-0
0.4	0.125	-0
0.05	0.075	-0
0.1	0.075	-0
0.15	0.075	-0
0.2	0.075	-0
0.25	0.075	-0
0.3	0.075	-0
0.35	0.075	-0
0.4	0.075	-0
0	0	-0
0.45	0	-0
0	0.5	-0
0.45	0.5	-0
0	0	-0.03
0.45	0	-0.03
0	0.5	-0.03
0.45	0.5	-0.03
0.025	0.05	-0
0.041666667	0.05	-0
0.058333333	0.05	-0
0.075	0.05	-0
0.091666667	0.05	-0
0.108333333	0.05	-0
0.125	0.05	-0
0.141666667	0.05	-0
0.158333333	0.05	-0
0.175	0.05	-0
0.191666667	0.05	-0
0.208333333	0.05	-0
0.225	0.05	-0
0.241666667	0.05	-0
0.258333333	0.05	-0
0.275	0.05	-0
0.291666667	0.05	-0
0.308333333	0.05	-0
0.325	0.05	-0
0.341666667	0.05	-0
0.358333333	0.05	-0
0.375	0.05	-0
0.391666667	0.05	-0
0.408333333	0.05	-0
0.425	0.05	-0
0.025	0.1	-0
0.041666667	0.1	-0
0.058333333	0.1	-0
0.075	0.1	-0
0.091666667	0.1	-0
0.108333333	0.1	-0
0.125	0.1	-0
0.141666667	0.1	-0
0.158333333	0.1	-0
0.175	0.1	-0
0.191666667	0.1	-0
0.208333333	0.1	-0
0.225	0.1	-0
0.241666667	0.1	-0
0.258333333	0.1	-0
0.275	0.1	-0
0.291666667	0.1	-0
0.308333333	0.1	-0
0.325	0.1	-0
0.341666667	0.1	-0
0.358333333	0.1	-0
0.375	0.1	-0
0.391666667	0.1	-0
0.408333333	0.1	-0
0.425	0.1	-0
0.025	0.15	-0
0.041666667	0.15	-0
0.058333333	0.15	-0
0.075	0.15	-0
0.091666667	0.15	-0
0.108333333	0.15	-0
0.125	0.15	-0
0.141666667	0.15	-0
0.158333333	0.15	-0
0.175	0.15	-0
0.191666667	0.15	-0
0.208333333	0.15	-0
0.225	0.15	-0
0.241666667	0.15	-0
0.258333333	0.15	-0
0.275	0.15	-0
0.291666667	0.15	-0
0.308333333	0.15	-0
0.325	0.15	-0
0.341666667	0.15	-0
0.358333333	0.15	-0
0.375	0.15	-0
0.391666667	0.15	-0
0.408333333	0.15	-0
0.425	0.15	-0
0.025	0.2	-0
0.041666667	0.2	-0
0.058333333	0.2	-0
0.075	0.2	-0
0.091666667	0.2	-0
0.108333333	0.2	-0
0.125	0.2	-0
0.141666667	0.2	-0
0.158333333	0.2	-0
0.175	0.2	-0
0.191666667	0.2	-0
0.208333333	0.2	-0
0.225	0.2	-0
0.241666667	0.2	-0
0.258333333	0.2	-0
0.275	0.2	-0
0.291666667	0.2	-0
0.308333333	0.2	-0
0.325	0.2	-0
0.341666667	0.2	-0
0.358333333	0.2	-0
0.375	0.2	-0
0.391666667	0.2	-0
0.408333333	0.2	-0
0.425	0.2	-0
0.025	0.25	-0
0.041666667	0.25	-0
0.058333333	0.25	-0
0.075	0.25	-0
0.091666667	0.25	-0
0.108333333	0.25	-0
0.125	0.25	-0
0.141666667	0.25	-0
0.158333333	0.25	-0
0.175	0.25	-0
0.191666667	0.25	-0
0.208333333	0.25	-0
0.225	0.25	-0
0.241666667	0.25	-0
0.258333333	0.25	-0
0.275	0.25	-0
0.291666667	0.25	-0
0.308333333	0.25	-0
0.325	0.25	-0
0.341666667	0.25	-0
0.358333333	0.25	-0
0.375	0.25	-0
0.391666667	0.25	-0
0.408333333	0.25	-0
0.425	0.25	-0
0.025	0.3	-0
0.041666667	0.3	-0
0.058333333	0.3	-0
0.075	0.3	-0
0.091666667	0.3	-0
0.108333333	0.3	-0
0.125	0.3	-0
0.141666667	0.3	-0
0.158333333	0.3	-0
0.175	0.3	-0
0.191666667	0.3	-0
0.208333333	0.3	-0
0.225	0.3	-0
0.241666667	0.3	-0
0.258333333	0.3	-0
0.275	0.3	-0
0.291666667	0.3	-0
0.308333333	0.3	-0
0.325	0.3	-0
0.341666667	0.3	-0
0.358333333	0.3	-0
0.375	0.3	-0
0.391666667	0.3	-0
0.408333333	0.3	-0
0.425	0.3	-0
0.025	0.35	-0
0.041666667	0.35	-0
0.058333333	0.35	-0
0.075	0.35	-0
0.091666667	0.35	-0
0.108333333	0.35	-0
0.125	0.35	-0
0.141666667	0.35	-0
0.158333333	0.35	-0
0.175	0.35	-0
0.191666667	0.35	-0
0.208333333	0.35	-0
0.225	0.35	-0
0.241666667	0.35	-0
0.258333333	0.35	-0
0.275	0.35	-0
0.291666667	0.35	-0
0.308333333	0.35	-0
0.325	0.35	-0
0.341666667	0.35	-0
0.358333333	0.35	-0
0.375	0.35	-0
0.391666667	0.35	-0
0.408333333	0.35	-0
0.425	0.35	-0
0.025	0.4	-0
0.041666667	0.4	-0
0.058333333	0.4	-0
0.075	0.4	-0
0.091666667	0.4	-0
0.108333333	0.4	-0
0.125	0.4	-0
0.141666667	0.4	-0
0.158333333	0.4	-0
0.175	0.4	-0
0.191666667	0.4	-0
0.208333333	0.4	-0
0.225	0.4	-0
0.241666667	0.4	-0
0.258333333	0.4	-0
0.275	0.4	-0
0.291666667	0.4	-0
0.308333333	0.4	-0
0.325	0.4	-0
0.341666667	0.4	-0
0.358333333	0.4	-0
0.375	0.4	-0
0.391666667	0.4	-0
0.408333333	0.4	-0
0.425	0.4	-0
0.025	0.45	-0
0.041666667	0.45	-0
0.058333333	0.45	-0
0.075	0.45	-0
0.091666667	0.45	-0
0.108333333	0.45	-0
0.125	0.45	-0
0.141666667	0.45	-0
0.158333333	0.45	-0
0.175	0.45	-0
0.191666667	0.45	-0
0.208333333	0.45	-0
0.225	0.45	-0
0.241666667	0.45	-0
0.258333333	0.45	-0
0.275	0.45	-0
0.291666667	0.45	-0
0.308333333	0.45	-0
0.325	0.45	-0
0.341666667	0.45	-0
0.358333333	0.45	-0
0.375	0.45	-0
0.391666667	0.45	-0
0.408333333	0.45	-0
0.425	0.45	-0
0.025	0.49	-0
0.041666667	0.49	-0
0.058333333	0.49	-0
0.075	0.49	-0
0.091666667	0.49	-0
0.108333333	0.49	-0
0.125	0.49	-0
0.141666667	0.49	-0
0.158333333	0.49	-0
0.175	0.49	-0
0.191666667	0.49	-0
0.208333333	0.49	-0
0.225	0.49	-0
0.241666667	0.49	-0
0.258333333	0.49	-0
0.275	0.49	-0
0.291666667	0.49	-0
0.308333333	0.49	-0
0.325	0.49	-0
0.341666667	0.49	-0
0.358333333	0.49	-0
0.375	0.49	-0
0.391666667	0.49	-0
0.408333333	0.49	-0
0.425	0.49	-0
0.01	0	0
0.02	0	0
0.03	0	0
0.04	0	0
0.05	0	0
0.06	0	0
0.07	0	0
0.08	0	0
0.09	0	0
0.1	0	0
0.11	0	0
0.12	0	0
0.13	0	0
0.14	0	0
0.15	0	0
0.16	0	0
0.17	0	0
0.18	0	0
0.19	0	0
0.199999999999	0	0
0.209999999999	0	0
0.219999999999	0	0
0.229999999999	0	0
0.239999999999	0	0
0.249999999999	0	0
0.259999999999	0	0
0.27	0	0
0.28	0	0
0.29	0	0
0.3	0	0
0.31	0	0
0.32	0	0
0.33	0	0
0.34	0	0
0.35	0	0
0.36	0	0
0.37	0	0
0.38	0	0
0.39	0	0
0.4	0	0
0.41	0	0
0.42	0	0
0.43	0	0
0.44	0	0
0.45	0.01	0
0.45	0.02	0
0.45	0.03	0
0.45	0.04	0
0.45	0.05	0
0.45	0.06	0
0.45	0.07	0
0.45	0.08	0
0.45	0.09	0
0.45	0.1	0
0.45	0.11	0
0.45	0.12	0
0.45	0.13	0
0.45	0.14	0
0.45	0.15	0
0.45	0.16	0
0.45	0.17	0
0.45	0.18	0
0.45	0.19	0
0.45	0.199999999999	0
0.45	0.209999999999	0
0.45	0.219999999999	0
0.45	0.229999999999	0
0.45	0.239999999999	0
0.45	0.249999999999	0
0.45	0.259999999999	0
0.45	0.269999999999	0
0.45	0.279999999999	0
0.45	0.289999999999	0
0.45	0.299999999999	0
0.45	0.309999999999	0
0.45	0.32	0
0.45	0.33	0
0.45	0.34	0
0.45	0.35	0
0.45	0.36	0
0.45	0.37	0
0.45	0.38	0
0.45	0.39	0
0.45	0.4	0
0.45	0.41	0
0.45	0.42	0
0.45	0.43	0
0.45	0.44	0
0.45	0.45	0
0.45	0.46	0
0.45	0.47	0
0.45	0.48	0
0.45	0.49	0
0.44	0.5	0
0.43	0.5	0
0.42	0.5	0
0.41	0.5	0
0.4	0.5	0
0.39	0.5	0
0.38	0.5	0
0.37	0.5	0
0.36	0.5	0
0.35	0.5	0
0.34	0.5	0
0.33	0.5	0
0.32	0.5	0
0.31	0.5	0
0.3	0.5	0
0.29	0.5	0
0.28	0.5	0
0.27	0.5	0
0.26	0.5	0
0.25	0.5	0
0.240000000001	0.5	0
0.230000000001	0.5	0
0.220000000001	0.5	0
0.210000000001	0.5	0
0.200000000001	0.5	0
0.19	0.5	0
0.18	0.5	0
0.17	0.5	0
0.16	0.5	0
0.15	0.5	0
0.14	0.5	0
0.13	0.5	0
0.12	0.5	0
0.11	0.5	0
0.1	0.5	0
0.09	0.5	0
0.08	0.5	0
0.07	0.5	0
0.06	0.5	0
0.05	0.5	0
0.04	0.5	0
0.03	0.5	0
0.02	0.5	0
0.01	0.5	0
0	0.49	0
0	0.48	0
0	0.47	0
0	0.46	0
0	0.45	0
0	0.44	0
0	0.43	0
0	0.42	0
0	0.41	0
0	0.4	0
0	0.39	0
0	0.38	0
0	0.37	0
0	0.36	0
0	0.35	0
0	0.34	0
0	0.33	0
0	0.320000000001	0
0	0.310000000001	0
0	0.300000000001	0
0	0.290000000001	0
0	0.280000000001	0
0	0.270000000001	0
0	0.260000000001	0
0	0.250000000001	0
0	0.240000000001	0
0	0.230000000001	0
0	0.220000000001	0
0	0.210000000001	0
0	0.200000000001	0
0	0.190000000001	0
0	0.180000000001	0
0	0.170000000001	0
0	0.160000000001	0
0	0.150000000001	0
0	0.140000000001	0
0	0.130000000001	0
0	0.12	0
0	0.11	0
0	0.1	0
0	0.09	0
0	0.08	0
0	0.07	0
0	0.06	0
0	0.05	0
0	0.04	0
0	0.03	0
0	0.02	0
0	0.01	0
0.45	0.01	-0.03
0.45	0.02	-0.03
0.45	0.03	-0.03
0.45	0.04	-0.03
0.45	0.05	-0.03
0.45	0.06	-0.03
0.45	0.07	-0.03
0.45	0.08	-0.03
0.45	0.09	-0.03
0.45	0.1	-0.03
0.45	0.11	-0.03
0.45	0.12	-0.03
0.45	0.13	-0.03
0.45	0.14	-0.03
0.45	0.15	-0.03
0.45	0.16	-0.03
0.45	0.17	-0.03
0.45	0.18	-0.03
0.45	0.19	-0.03
0.45	0.199999999999	-0.03
0.45	0.209999999999	-0.03
0.45	0.219999999999	-0.03
0.45	0.229999999999	-0.03
0.45	0.239999999999	-0.03
0.45	0.249999999999	-0.03
0.45	0.259999999999	-0.03
0.45	0.269999999999	-0.03
0.45	0.279999999999	-0.03
0.45	0.289999999999	-0.03
0.45	0.299999999999	-0.03
0.45	0.309999999999	-0.03
0.45	0.32	-0.03
0.45	0.33	-0.03
0.45	0.34	-0.03
0.45	0.35	-0.03
0.45	0.36	-0.03
0.45	0.37	-0.03
0.45	0.38	-0.03
0.45	0.39	-0.03
0.45	0.4	-0.03
0.45	0.41	-0.03
0.45	0.42	-0.03
0.45	0.43	-0.03
0.45	0.44	-0.03
0.45	0.45	-0.03
0.45	0.46	-0.03
0.45	0.47	-0.03
0.45	0.48	-0.03
0.45	0.49	-0.03
0.44	0.5	-0.03
0.43	0.5	-0.03
0.42	0.5	-0.03
0.41	0.5	-0.03
0.4	0.5	-0.03
0.39	0.5	-0.03
0.38	0.5	-0.03
0.37	0.5	-0.03
0.36	0.5	-0.03
0.35	0.5	-0.03
0.34	0.5	-0.03
0.33	0.5	-0.03
0.32	0.5	-0.03
0.31	0.5	-0.03
0.3	0.5	-0.03
0.29	0.5	-0.03
0.28	0.5	-0.03
0.27	0.5	-0.03
0.26	0.5	-0.03
0.25	0.5	-0.03
0.240000000001	0.5	-0.03
0.230000000001	0.5	-0.03
0.220000000001	0.5	-0.03
0.210000000001	0.5	-0.03
0.200000000001	0.5	-0.03
0.19	0.5	-0.03
0.18	0.5	-0.03
0.17	0.5	-0.03
0.16	0.5	-0.03
0.15	0.5	-0.03
0.14	0.5	-0.03
0.13	0.5	-0.03
0.12	0.5	-0.03
0.11	0.5	-0.03
0.1	0.5	-0.03
0.09	0.5	-0.03
0.08	0.5	-0.03
0.07	0.5	-0.03
0.06	0.5	-0.03
0.05	0.5	-0.03
0.04	0.5	-0.03
0.03	0.5	-0.03
0.02	0.5	-0.03
0.01	0.5	-0.03
0	0.49	-0.03
0	0.48	-0.03
0	0.47	-0.03
0	0.46	-0.03
0	0.45	-0.03
0	0.44	-0.03
0	0.43	-0.03
0	0.42	-0.03
0	0.41	-0.03
0	0.4	-0.03
0	0.39	-0.03
0	0.38	-0.03
0	0.37	-0.03
0	0.36	-0.03
0	0.35	-0.03
0	0.34	-0.03
0	0.33	-0.03
0	0.320000000001	-0.03
0	0.310000000001	-0.03
0	0.300000000001	-0.03
0	0.290000000001	-0.03
0	0.280000000001	-0.03
0	0.270000000001	-0.03
0	0.260000000001	-0.03
0	0.250000000001	-0.03
0	0.240000000001	-0.03
0	0.230000000001	-0.03
0	0.220000000001	-0.03
[...]
CELL_DATA 32928
SCALARS _Attribute double 1
LOOKUP_TABLE default
10.195449698586 10.906176367669 10.288552433988 11.102113630653 10.620033297202 10.745653805601 10.659115537353 10.241652143693 10.351485546044 10.268675730467 10.592280115146 10.91799957701 10.537043391275 10.665878517095 9.6200327886436 10.549318751627 10.038721325689 10.682762998118 11.113552825169 11.159343403374 10.556543457658 9.8194202108675 10.498585179236 10.229913356188 9.8470108916979 15.025714426479 9.7440567466667 10.434566624443 10.601364261791 11.152258806537 10.643392313272 10.458959590041 10.607900977135 10.322182958549 10.228377060452 10.083739982302 13.591277592943 13.029572416973 10.900163659062 10.103390348154 15.610463909854 10.360434415736 9.6515020367312 10.378364921722 14.506628226938 10.932236370881 41.935383873842 10.585763251345 9.7223227750392 10.744042587714 9.933987509466 11.630059812569 9.967738644063 10.593076938547 10.148967074676 10.847414029387 10.868565688992 10.217121091433 9.69728733985 10.792010133672 10.630234413099 10.082038460751 10.47165280067 10.679578441306 10.665002689104 10.144079033368 10.001452145385 10.809228153047 11.1753395395 11.12633699355 9.9300016876123 9.6897031956896 9.9250064189373 12.066036777234 10.177696063131 10.595243635299 10.499706101542 9.4143610356087 10.122069848304 10.714982283764 10.250368692655 10.560562611017 11.214710131472 9.9843448622758 11.865820230956 13.974777377113 10.30477619872 10.64105311473 10.496345282806 10.552548604366 11.157272312197 10.859529323371 10.648266906465 10.088137114946 13.905787230143 9.8091686261206 11.466942605911 10.703359272931 10.430600836352 10.15080227191 11.079020282517 10.072764332556 10.902072885918 9.9721185281515 12.081040171646 11.061266712078 10.157944510678 10.794675593095 10.6944228052 11.068916504182 12.399856795199 10.823845765061 10.562610754799 10.018975246702 40.895513978067 11.216631078479 10.580480045782 10.727438718746 10.348601784471 10.478709462903 11.018339673169 11.007886635357 14.884092127888 9.8964047331401 10.294076379406 10.678278583875 10.685720132933 10.371149171333 10.893753861662 10.223771002171 11.034855711823 11.126145934221 12.64722945787 9.949709759621 10.707169606781 9.5778319763981 10.268069475958 9.8458567801031 9.9211283332048 9.9575466225872 10.410657018894 10.303065643652 10.703304896682 10.990695924783 9.6060449638713 10.702164694987 10.263859494297 10.846526162212 10.056356986244 10.50396840998 9.9840742553555 10.366372006549 11.2767785209 10.709092344939 9.8645457051557 9.8235347319557 12.256028560467 10.685795896805 10.537765809924 11.055906485583 11.071142633445 10.53951001033 9.65670106681 10.706318333685 10.465575575545 10.177354438079 10.326840612279 10.866533187579 11.968457000478 10.977872967034 21.525421468902 10.890263205239 10.634668353645 10.96160454187 10.243388555513 10.641018269325 9.2617484409925 10.068526885827 11.833993522504 13.55485908732 10.532153382917 10.67334814373 10.745118488678 24.201282460973 11.155518302868 10.694144835305 9.696821343421 9.6864684984461 10.363440439737 10.910516113518 10.665343965209 9.9355175554174 11.02153917495 9.3352378525268 10.438962727811 9.7531904925675 10.829518961493 11.207687783196 10.425756424698 10.731208352679 10.267917212008 10.309046351294 11.042527462265 10.158813608212 12.122766855604 10.513064718183 10.910196143287 10.347157404442 11.167953938409 9.7019729621156 9.6031612243569 10.872355785895 10.4478142206 11.087354471949 9.9383909210417 10.51165264854 12.284631633459 10.518127103694 9.8807651659385 9.4911940476041 11.163800456062 11.230412002825 10.492532764014 10.175764620481 9.8969237155662 10.763125390282 9.9624862250576 9.7706276880285 12.397422294256 9.746766786594 10.717082509134 15.351578392914 10.364981472301 10.45737650942 22.204427300946 10.281875232182 10.214498726837 11.943675451274 10.588204672108 11.340602609782 10.505186144337 10.068540079235 10.55890366867 10.603585539833 11.115170396538 10.935550185925 20.392148599028 10.562436724092 11.273665353132 9.7908721273954 11.095382335547 10.849664899657 9.899295452425 9.3814431723179 10.338496170866 10.455735453084 10.635135263114 11.046353751623 25.949243045131 10.529989396831 12.774373993933 10.698793313638 10.362361983133 10.825653221993 12.180052646712 12.089803937768 10.270957537935 11.136021036624 10.616055934525 10.629570565701 10.204090078441 11.591210896565 11.026880771361 9.7752037184541 10.547250324688 10.669200590013 11.673010885955 10.330578355282 10.464800032004 13.073592202478 10.049247838102 10.498514313305 10.212552990099 8.9201465637283 9.8985926357304 10.519253427796 10.53243113247 10.703083584078 9.7527486328733 10.14803406552 9.9985488461288 10.417396269563 10.492092141132 11.046848723747 10.878299120603 10.257710700431 10.232564277925 10.322669212928 11.110571734255 11.8367620981 14.714052255614 10.446748487433 10.677957723373 9.9083394264239 11.053378790976 10.6964617898 10.403869176681 9.4717365489296 9.4687030023682 10.208613351809 20.08544055691 10.725552234788 10.085995479944 14.787957286704 11.887919040388 10.510629693306 10.578263907621 10.381396599314 10.697786059202 9.910157509679 11.729168767624 10.500858162189 25.624393585862 9.9595162315158 13.964459167919 11.032807802266 10.873621464838 10.016187400148 10.394761955865 13.97080228343 10.29482515995 11.12447738641 9.3336825247789 20.824311848377 9.9570102895902 10.586565353923 10.67800634188 10.518479318581 11.651205078754 10.759037119238 10.538796508491 10.960777356942 10.633736755921 10.140810083736 8.8679996195536 10.327612341394 10.542468046616 10.43503812745 11.573180835746 11.077579828337 10.188458090638 19.92177823054 10.513068421121 10.826210854964 10.398334492329 10.654251443071 16.358691116258 10.016045064066 11.024276671388 16.939803699364 11.117706611785 10.480041038902 10.80405091996 10.374042115847 10.672384042657 10.798898875694 10.527105229872 10.627845385347 10.385033403615 9.8155968213641 9.8951187751853 10.705007948417 10.087073419921 10.399068263051 10.469515726267 11.066269216015 10.609705865944 14.487745084503 10.114790076113 9.8433564513941 10.482218266073 10.767062306399 10.923811524891 11.164547963389 12.848927915692 11.19743446193 10.468745172346 10.073389668859 11.020516512424 10.393375187117 10.152584565268 10.738042889809 10.06110741143 10.651504884619 9.7967945837566 10.744896373783 10.748025991352 10.076292947553 10.929681330149 10.60487858135 11.266775166312 11.164239333944 10.733670722266 10.071712073362 10.834044429084 9.8065833456707 10.057323543763 26.646706371576 9.8860374098117 10.984452606853 10.306225785862 10.702360303066 15.791537307892 9.7003068205992 9.8793790800996 10.368233866653 10.105831218928 9.8603802183638 9.8151848610527 10.582634464989 10.727451201529 9.9736013708545 10.401536850743 10.413414412744 10.536193820844 11.096861539366 9.9683368636416 10.782847730495 10.216955656899 9.8163920565481 10.69706767718 10.857939933919 11.238819313023 10.719514340205 9.4751041505836 10.128813113776 10.205348479872 10.3099675318 11.034926259121 9.7301263400876 12.201520189359 10.701931155888 12.673959770499 10.75766900711 10.459381340651 11.925721180812 15.466747471104 10.360812182031 10.683802651881 10.341265533322 11.258871818068 9.9039165752076 10.562514583148 10.547961652555 12.428526553795 10.117095238109 9.9447324153324 10.310384486529 10.487677057566 11.618470429657 10.61885760585 10.264172298429 10.366974680174 9.4065021434488 9.6318257891555 9.8317625905233 9.8436438795425 11.100005718568 9.7348720642354 10.267099815595 10.148351775707 10.71785972951 10.650910164894 10.406736404518 10.444954232057 10.724235348638 21.441484690019 9.6945569985911 10.146404367684 25.249347877591 12.812929944973 10.883510746215 10.6828300406 11.084604841118 10.575806357334 10.773433834004 10.84017268538 10.807401610587 11.165303008054 10.949217650342 10.042772833868 10.628922273282 10.502508540999 9.5351164074474 10.773704299358 10.473559279074 11.22718001894 10.676484606233 10.852429206465 10.59712257853 10.662670323051 10.304422649924 10.495034241581 10.244930871424 11.094895529503 11.031469456525 10.789413187437 10.479176770599 10.862941676724 10.367504968663 11.121137727358 11.096155448047 11.70360889766 10.326327724895 11.070181645133 9.6145596834815 9.6856815477449 10.754995531091 10.522327532455 10.60199843993 10.856386899175 10.518360854222 10.321190531196 10.172948572675 10.312890628334 10.53886780354 10.683592072932 10.159102586643 10.63906340559 11.614565870105 10.327971117239 10.352792764542 11.401166170293 10.166998907428 11.617117888713 17.375348995237 11.834853010191 11.192878560597 11.851629963419 11.23792016479 10.490215449544 9.8885671814433 24.487714862192 9.8044986128177 10.56836119957 10.509159963268 10.983329807732 10.476468266185 11.071459241719 10.991899034248 10.478410620977 11.069838076731 10.753037395514 9.9571539211949 11.026717257377 10.577247122156 11.175334240917 10.928296975323 10.164496421557 10.932918352845 10.119698395095 10.70185758845 11.169206128242 9.6975042464672 10.119457069356 10.524525470855 11.468917124253 10.715477694289 9.9838364853518 11.452245811643 10.003462063567 11.008252372491 10.708144235252 10.710007810116 10.24124077135 10.594400476287 10.988803814903 11.182326941662 11.657555851021 10.608363582303 10.354835618495 10.072000916496 10.763743173526 11.027447560128 9.4915372271092 11.994038883969 10.750764555571 10.671951839235 10.616016900734 10.829192201426 10.950622640774 10.175192380263 10.859644149367 14.935913805994 9.9027062762439 11.155531561419 10.263214639955 9.8523640619127 10.622503959346 10.533657892803 11.137157461048 10.226121019049 10.104823056051 11.066505968516 10.697770090074 10.701661228542 9.625356526832 34.65154801846 10.657901995913 10.898993421253 11.219552425725 10.717629749478 10.733821363537 10.660125138615 10.08420472163 10.065230468576 11.28518898791 10.690717620492 10.673755041308 10.874755633827 11.160941525798 10.149355202991 10.701742021003 11.082199143759 10.292524143144 10.468447771193 10.744549461647 10.507333249893 10.491190468263 10.783487737963 9.4432445407152 10.798084123773 10.534390747141 10.456200040441 10.572271767903 11.566489741175 10.394377533349 10.079258754282 10.323380265077 10.283581942956 10.467517566391 10.674904992453 10.084709699572 10.815895582367 10.505206529087 9.529666566414 10.372585699348 11.134060805331 10.53683561898 9.6870532439224 11.505466530767 10.664982589 9.5680029447793 11.97482962293 10.567720748405 10.813155081482 11.309708856641 12.565577709694 11.547297897859 9.5223894993776 11.000824352666 13.922706986398 10.553223765167 10.687856358312 10.100671844001 10.300435745236 10.88802070858 10.740031777901 10.858717238956 9.8915718919832 11.565249191084 10.091369402042 10.951712312433 9.8986637441792 11.094350744334 9.7471402038315 10.173527925319 10.762690214443 13.879918958274 10.062148687347 10.118711972009 10.051845569086 11.208439659262 10.704278890632 10.829186016808 11.208853684166 10.908409732137 11.39485777426 10.40174492855 10.100297057873 11.364253069125 11.159073637266 10.951082748459 10.55542606003 10.781253477047 10.507067069807 10.311828445741 10.791849097354 10.721876235077 11.925888994503 19.174743120475 9.8946281457235 10.357105010002 10.869846292438 13.01897862424 10.288890640206 11.212504871878 9.8249013621545 10.262230600219 10.075689139689 11.038113791289 10.043491402779 10.909114869305 10.143439790602 10.601710305667 13.036035978874 10.153551059773 11.265779735626 11.680453714559 10.815566735544 10.339281487248 12.945819846814 9.9300324232832 10.698395954923 10.62815890789 10.591708257668 10.753001581777 9.9704273289637 10.653014922283 10.37372744818 10.499810680926 14.047046172498 10.067412221033 12.199659533409 10.674302227259 10.473570727295 9.7765221817137 10.90007116406 8.942607741984 10.434600085919 10.636003348014 10.136247618352 11.291552810009 10.609706871234 9.7585271315142 11.784312546694 10.11018766294 10.860917969224 31.420347053458 11.433302032662 9.4594741002094 10.571604669641 10.61823270375 10.26303970819 23.034126789052 10.105292596691 11.954423656794 10.098848977312 10.33653384827 10.418494887819 10.325448052096 12.237876689693 10.146049334987 10.650821142166 10.181377942802 10.802121493613 26.79007320307 10.243339485769 10.469065910933 11.334160802362 9.7049823336225 10.8614297613 10.740796046371 10.197383830415 12.228454282299 10.592510025137 10.077413837105 11.775819951868 9.788159739447 9.9106630078481 8.7846466760374 10.750655613051 10.485645437139 10.611152907833 11.159130012479 10.528526291134 10.646125019606 10.724162724494 10.991934113323 10.298100124814 10.568316488431 10.747334137383 10.707245590124 9.6818489997941 10.362268725621 9.8452777110801 15.639474655387 10.951025985649 11.21092602049 10.515007762609 10.456562038174 9.5213834847565 9.7906269312564 13.532022856415 10.571516605906 11.316007524898 10.378200685712 10.682803259876 9.5978576931854 10.279001541991 10.439343112174 10.530439392849 11.855157857872 13.389320479119 10.744997151497 11.395591054408 9.5022189284737 10.20008332959 10.232314600368 10.588573881313 10.865055732512 10.914768365082 10.654450956166 10.635995068352 10.683659181212 11.187508519199 11.108540936434 11.563685761234 10.652743859518 10.694742045547 11.216019654736 14.258867238612 10.241982838316 11.30460758383 11.193338816984 10.765879520269 10.428274318675 12.622747766168 10.3906043796 10.260008021796 10.267895983585 10.385746869448 14.906196400154 10.702665924073 10.507048317525 10.626305702652 10.70966668246 15.116479893317 24.031504427984 11.49219572998 10.751232206098 10.380453561709 11.462104572601 10.659809567027 10.201531550066 9.7308530689936 10.9111400121 11.010777135239 10.644757696057 10.390243934483 9.9424263615747 10.120335805527 10.395296246707 10.680446890792 10.464315645849 10.051156447426 10.747104830015 12.387472661894 14.715220622069 10.747707838075 10.416286091758 12.571904533719 11.139987786873 11.093736003943 15.542612829371 10.024685411553 11.233106188839 11.309802242756 10.91587125246 10.065997239859 10.868229090389 10.130486733541 10.351811082771 10.100161168221 10.186384234426 10.791281886436 10.708774121713 11.078000536493 10.562245862479 17.30563303367 10.375769023327 9.5525982803514 10.732589483836 11.331310745735 10.069372728745 10.510317718505 10.355932304196 10.374322077985 10.398174938722 9.9754785528642 10.253667934696 10.46394824507 10.594022019285 10.00317362265 10.753826203258 11.595003676057 23.098064506714 9.7844637732896 10.552893444449 11.049902119443 10.722365826498 11.290103893289 10.148372093461 10.736328041785 11.604466242405 11.759310149437 10.678731941762 13.055307112445 15.588928674119 10.317441471822 11.548789663464 10.673407592581 11.275835024594 10.999382535825 10.478101681109 11.67593471986 10.598543079091 9.7805220596501 10.439945872272 10.836805346322 9.5338889748021 11.037010716228 10.458046996017 10.791414888831 10.670295682337 10.038660168563 11.046989793098 13.358706654305 10.745129305466 9.8990579179513 10.756145177314 11.391850113596 10.612842893109 10.029378770606 10.415851343533 10.724408140656 10.117282236374 10.542590498297 9.8348223661603 10.207546470766 11.559249347096 10.540515937347 11.645984894286 10.755430328707 10.579881058291 10.65537283635 10.621031231127 9.199764247778 10.927623641593 11.559030960362 14.749660767018 10.480444819393 10.227386330228 11.036748527293 11.392481840002 10.830316763995 10.226119718487 9.5328451773193 10.481850486264 10.619477734705 10.847580914555 10.017422499273 32.677131064977 18.102116019253 34.7260171567 10.39278931424 14.370621874891 9.6927579179555 10.550928362796 10.487473598342 11.973363674891 10.939133438543 10.847429337276 11.123129525199 10.277736791234 34.808731406243 10.219670309883 10.515282528364 12.997697649237 10.131647391803 10.647324470172 10.015231943931 38.474138358788 12.199316894013 11.324465392758 11.09179973749 11.101593811287 10.378987811616 10.703775711787 11.723932622563 10.874864774872 10.726960114803 10.142538203536 10.652584691649 10.032864467951 10.50006463433 11.305865536306 10.834293914944 9.8507504034151 13.381847814491 10.503469749143 11.435610582391 9.8170386298072 10.806729387062 10.843954881775 11.115409075816 10.462258052668 10.680415043764 10.118162243123 11.850848228351 10.191213813549 11.094364203808 11.023125281048 10.315197844023 10.649368132084 11.03918637281 11.1918051181 23.997794992467 11.742138236512 10.544914587005 10.52591803279 10.620490657267 10.498671708727 11.009466979621 11.04143445222 12.676805892382 9.9014849930679 10.999283941857 10.523705266735 10.163847566049 10.130256968374 10.760906482044 10.295433457687 10.135416112263 10.136608701555 12.0576037751 9.0040647848032 11.022719943938 10.903368044696 10.372524248746 10.62639071665 14.942292791375 9.9502360591192 11.079285506163 9.868388092639 9.6597178482459 10.240027378422 11.137567332902 9.4174051872386 11.05229020904 10.424895157053 10.535706595563 10.896452812783 10.532053754448 10.237494566788 10.658440086526 10.347106592335 9.8880112811574 10.72216977626 11.588001438771 9.8831987885107 11.197130422191 10.556307800215 10.383216256695 10.865078728249 11.265935948699 9.6673794461929 10.089438277 10.75686888545 10.151173311373 10.323970344896 9.4713246813521 10.429099584263 10.256481350196 10.692226191366 10.281108187154 10.570606734311 10.345066295519 10.771715478153 10.595960063435 12.990100264846 9.6230348244643 10.441860959838 10.310928372813 12.856656572555 10.542978900695 11.100887334797 10.955094254245 10.150174062043 10.690070400183 11.722826788377 10.968175013708 10.163775466909 11.603737279586 11.199219483006 9.8470399646478 10.45013959893 10.034129060659 10.526245994955 10.573772569567 10.963593971 9.6467291943491 39.390598550058 10.88111276833 12.498316579937 11.600154353751 9.8003664209441 12.237166190045 10.774179475462 10.549862919893 9.972987496408 10.328818958846 9.6607568277444 10.167390773787 9.6740640223276 10.388074143802 11.085828401722 10.390653545038 19.832727276037 10.714620243519 10.664500292933 10.873567884214 10.051961396493 10.931862466177 10.430902403621 9.9068091384445 10.245451829796 10.707403445552 10.759387851324 10.801884052563 10.010809390535 11.133235173621 10.222590442368 10.170749670781 10.65134293691 10.568358761396 10.365205246235 9.9271087123702 10.426924275125 24.187633417672 10.230671423967 10.069679632498 10.754514476732 12.628493062544 10.939344357132 10.937630298684 9.8708476358345 12.763673232665 10.754836268197 10.697983781467 10.517255909944 10.925398754327 10.048398590934 10.901735914642 10.56256127087 12.420546150375 10.66283695051 9.5166661128176 10.533360227343 10.357471199407 10.751644679274 10.660621263718 11.259548893544 13.241399110253 9.4385892649298 10.325172733927 10.463609793179 13.661331391523 10.576179794838 10.640079678464 10.571854253815 10.983439324498 10.553803698689 10.799601174741 10.649565933366 11.522273848869 9.7872527308542 10.677833934948 10.817793994814 10.719108930658 13.775294575761 10.439340482702 10.720731693054 11.328263782508 10.69163206383 13.085038357699 12.214242120649 10.076088595146 9.9926203532665 11.715910007406 9.6756735907884 10.151578106599 10.297469076005 10.079766035724 10.411277190571 10.070742047291 10.686126962664 11.70195363038 15.825493630177 10.462773590677 11.175491082461 10.696830256475 10.456757641941 11.242368791217 10.495974254947 10.176227572119 10.000266817912 10.425977527313 9.5356663464314 11.01583987617 10.763499074852 11.261835829709 10.364812829528 10.472161787903 10.326286836735 10.492334999152 10.759635956999 10.799439372709 10.978551466073 11.26800500078 15.045238574659 11.323022517409 10.878793109098 11.76183352118 10.889288049713 11.021511985127 9.9796627843472 11.143843963385 11.51089088222 11.17199873117 10.529281931467 10.046147167208 10.642652186134 10.188263369076 10.598970667927 10.611105741163 9.8325892795499 11.191417936168 10.777357715657 10.602222537182 9.9664530855257 11.012505194177 10.239528493753 9.7274406916556 9.7360251702053 23.59