# vtk DataFile Version 3.0
d-3__ created by libgimli-v1.1.1-44-gf8b60ca0
ASCII
DATASET UNSTRUCTURED_GRID
POINTS 8806 double
0.05	0.485	-0.005
0.1	0.485	-0.005
0.15	0.485	-0.005
0.2	0.485	-0.005
0.25	0.485	-0.005
0.3	0.485	-0.005
0.35	0.485	-0.005
0.4	0.485	-0.005
0.05	0.425	-0
0.1	0.425	-0
0.15	0.425	-0
0.2	0.425	-0
0.25	0.425	-0
0.3	0.425	-0
0.35	0.425	-0
0.4	0.425	-0
0.05	0.375	-0
0.1	0.375	-0
0.15	0.375	-0
0.2	0.375	-0
0.25	0.375	-0
0.3	0.375	-0
0.35	0.375	-0
0.4	0.375	-0
0.05	0.325	-0
0.1	0.325	-0
0.15	0.325	-0
0.2	0.325	-0
0.25	0.325	-0
0.3	0.325	-0
0.35	0.325	-0
0.4	0.325	-0
0.05	0.275	-0
0.1	0.275	-0
0.15	0.275	-0
0.2	0.275	-0
0.25	0.275	-0
0.3	0.275	-0
0.35	0.275	-0
0.4	0.275	-0
0.05	0.225	-0
0.1	0.225	-0
0.15	0.225	-0
0.2	0.225	-0
0.25	0.225	-0
0.3	0.225	-0
0.35	0.225	-0
0.4	0.225	-0
0.05	0.175	-0
0.1	0.175	-0
0.15	0.175	-0
0.2	0.175	-0
0.25	0.175	-0
0.3	0.175	-0
0.35	0.175	-0
0.4	0.175	-0
0.05	0.125	-0
0.1	0.125	-0
0.15	0.125	-0
0.2	0.125	-0
0.25	0.125	-0
0.3	0.125	-0
0.35	0.125	-0
0.4	0.125	-0
0.05	0.075	-0
0.1	0.075	-0
0.15	0.075	-0
0.2	0.075	-0
0.25	0.075	-0
0.3	0.075	-0
0.35	0.075	-0
0.4	0.075	-0
0	0	-0
0.45	0	-0
0	0.5	-0
0.45	0.5	-0
0	0	-0.03
0.45	0	-0.03
0	0.5	-0.03
0.45	0.5	-0.03
0.025	0.05	-0
0.041666667	0.05	-0
0.058333333	0.05	-0
0.075	0.05	-0
0.091666667	0.05	-0
0.108333333	0.05	-0
0.125	0.05	-0
0.141666667	0.05	-0
0.158333333	0.05	-0
0.175	0.05	-0
0.191666667	0.05	-0
0.208333333	0.05	-0
0.225	0.05	-0
0.241666667	0.05	-0
0.258333333	0.05	-0
0.275	0.05	-0
0.291666667	0.05	-0
0.308333333	0.05	-0
0.325	0.05	-0
0.341666667	0.05	-0
0.358333333	0.05	-0
0.375	0.05	-0
0.391666667	0.05	-0
0.408333333	0.05	-0
0.425	0.05	-0
0.025	0.1	-0
0.041666667	0.1	-0
0.058333333	0.1	-0
0.075	0.1	-0
0.091666667	0.1	-0
0.108333333	0.1	-0
0.125	0.1	-0
0.141666667	0.1	-0
0.158333333	0.1	-0
0.175	0.1	-0
0.191666667	0.1	-0
0.208333333	0.1	-0
0.225	0.1	-0
0.241666667	0.1	-0
0.258333333	0.1	-0
0.275	0.1	-0
0.291666667	0.1	-0
0.308333333	0.1	-0
0.325	0.1	-0
0.341666667	0.1	-0
0.358333333	0.1	-0
0.375	0.1	-0
0.391666667	0.1	-0
0.408333333	0.1	-0
0.425	0.1	-0
0.025	0.15	-0
0.041666667	0.15	-0
0.058333333	0.15	-0
0.075	0.15	-0
0.091666667	0.15	-0
0.108333333	0.15	-0
0.125	0.15	-0
0.141666667	0.15	-0
0.158333333	0.15	-0
0.175	0.15	-0
0.191666667	0.15	-0
0.208333333	0.15	-0
0.225	0.15	-0
0.241666667	0.15	-0
0.258333333	0.15	-0
0.275	0.15	-0
0.291666667	0.15	-0
0.308333333	0.15	-0
0.325	0.15	-0
0.341666667	0.15	-0
0.358333333	0.15	-0
0.375	0.15	-0
0.391666667	0.15	-0
0.408333333	0.15	-0
0.425	0.15	-0
0.025	0.2	-0
0.041666667	0.2	-0
0.058333333	0.2	-0
0.075	0.2	-0
0.091666667	0.2	-0
0.108333333	0.2	-0
0.125	0.2	-0
0.141666667	0.2	-0
0.158333333	0.2	-0
0.175	0.2	-0
0.191666667	0.2	-0
0.208333333	0.2	-0
0.225	0.2	-0
0.241666667	0.2	-0
0.258333333	0.2	-0
0.275	0.2	-0
0.291666667	0.2	-0
0.308333333	0.2	-0
0.325	0.2	-0
0.341666667	0.2	-0
0.358333333	0.2	-0
0.375	0.2	-0
0.391666667	0.2	-0
0.408333333	0.2	-0
0.425	0.2	-0
0.025	0.25	-0
0.041666667	0.25	-0
0.058333333	0.25	-0
0.075	0.25	-0
0.091666667	0.25	-0
0.108333333	0.25	-0
0.125	0.25	-0
0.141666667	0.25	-0
0.158333333	0.25	-0
0.175	0.25	-0
0.191666667	0.25	-0
0.208333333	0.25	-0
0.225	0.25	-0
0.241666667	0.25	-0
0.258333333	0.25	-0
0.275	0.25	-0
0.291666667	0.25	-0
0.308333333	0.25	-0
0.325	0.25	-0
0.341666667	0.25	-0
0.358333333	0.25	-0
0.375	0.25	-0
0.391666667	0.25	-0
0.408333333	0.25	-0
0.425	0.25	-0
0.025	0.3	-0
0.041666667	0.3	-0
0.058333333	0.3	-0
0.075	0.3	-0
0.091666667	0.3	-0
0.108333333	0.3	-0
0.125	0.3	-0
0.141666667	0.3	-0
0.158333333	0.3	-0
0.175	0.3	-0
0.191666667	0.3	-0
0.208333333	0.3	-0
0.225	0.3	-0
0.241666667	0.3	-0
0.258333333	0.3	-0
0.275	0.3	-0
0.291666667	0.3	-0
0.308333333	0.3	-0
0.325	0.3	-0
0.341666667	0.3	-0
0.358333333	0.3	-0
0.375	0.3	-0
0.391666667	0.3	-0
0.408333333	0.3	-0
0.425	0.3	-0
0.025	0.35	-0
0.041666667	0.35	-0
0.058333333	0.35	-0
0.075	0.35	-0
0.091666667	0.35	-0
0.108333333	0.35	-0
0.125	0.35	-0
0.141666667	0.35	-0
0.158333333	0.35	-0
0.175	0.35	-0
0.191666667	0.35	-0
0.208333333	0.35	-0
0.225	0.35	-0
0.241666667	0.35	-0
0.258333333	0.35	-0
0.275	0.35	-0
0.291666667	0.35	-0
0.308333333	0.35	-0
0.325	0.35	-0
0.341666667	0.35	-0
0.358333333	0.35	-0
0.375	0.35	-0
0.391666667	0.35	-0
0.408333333	0.35	-0
0.425	0.35	-0
0.025	0.4	-0
0.041666667	0.4	-0
0.058333333	0.4	-0
0.075	0.4	-0
0.091666667	0.4	-0
0.108333333	0.4	-0
0.125	0.4	-0
0.141666667	0.4	-0
0.158333333	0.4	-0
0.175	0.4	-0
0.191666667	0.4	-0
0.208333333	0.4	-0
0.225	0.4	-0
0.241666667	0.4	-0
0.258333333	0.4	-0
0.275	0.4	-0
0.291666667	0.4	-0
0.308333333	0.4	-0
0.325	0.4	-0
0.341666667	0.4	-0
0.358333333	0.4	-0
0.375	0.4	-0
0.391666667	0.4	-0
0.408333333	0.4	-0
0.425	0.4	-0
0.025	0.45	-0
0.041666667	0.45	-0
0.058333333	0.45	-0
0.075	0.45	-0
0.091666667	0.45	-0
0.108333333	0.45	-0
0.125	0.45	-0
0.141666667	0.45	-0
0.158333333	0.45	-0
0.175	0.45	-0
0.191666667	0.45	-0
0.208333333	0.45	-0
0.225	0.45	-0
0.241666667	0.45	-0
0.258333333	0.45	-0
0.275	0.45	-0
0.291666667	0.45	-0
0.308333333	0.45	-0
0.325	0.45	-0
0.341666667	0.45	-0
0.358333333	0.45	-0
0.375	0.45	-0
0.391666667	0.45	-0
0.408333333	0.45	-0
0.425	0.45	-0
0.025	0.49	-0
0.041666667	0.49	-0
0.058333333	0.49	-0
0.075	0.49	-0
0.091666667	0.49	-0
0.108333333	0.49	-0
0.125	0.49	-0
0.141666667	0.49	-0
0.158333333	0.49	-0
0.175	0.49	-0
0.191666667	0.49	-0
0.208333333	0.49	-0
0.225	0.49	-0
0.241666667	0.49	-0
0.258333333	0.49	-0
0.275	0.49	-0
0.291666667	0.49	-0
0.308333333	0.49	-0
0.325	0.49	-0
0.341666667	0.49	-0
0.358333333	0.49	-0
0.375	0.49	-0
0.391666667	0.49	-0
0.408333333	0.49	-0
0.425	0.49	-0
0.01	0	0
0.02	0	0
0.03	0	0
0.04	0	0
0.05	0	0
0.06	0	0
0.07	0	0
0.08	0	0
0.09	0	0
0.1	0	0
0.11	0	0
0.12	0	0
0.13	0	0
0.14	0	0
0.15	0	0
0.16	0	0
0.17	0	0
0.18	0	0
0.19	0	0
0.199999999999	0	0
0.209999999999	0	0
0.219999999999	0	0
0.229999999999	0	0
0.239999999999	0	0
0.249999999999	0	0
0.259999999999	0	0
0.27	0	0
0.28	0	0
0.29	0	0
0.3	0	0
0.31	0	0
0.32	0	0
0.33	0	0
0.34	0	0
0.35	0	0
0.36	0	0
0.37	0	0
0.38	0	0
0.39	0	0
0.4	0	0
0.41	0	0
0.42	0	0
0.43	0	0
0.44	0	0
0.45	0.01	0
0.45	0.02	0
0.45	0.03	0
0.45	0.04	0
0.45	0.05	0
0.45	0.06	0
0.45	0.07	0
0.45	0.08	0
0.45	0.09	0
0.45	0.1	0
0.45	0.11	0
0.45	0.12	0
0.45	0.13	0
0.45	0.14	0
0.45	0.15	0
0.45	0.16	0
0.45	0.17	0
0.45	0.18	0
0.45	0.19	0
0.45	0.199999999999	0
0.45	0.209999999999	0
0.45	0.219999999999	0
0.45	0.229999999999	0
0.45	0.239999999999	0
0.45	0.249999999999	0
0.45	0.259999999999	0
0.45	0.269999999999	0
0.45	0.279999999999	0
0.45	0.289999999999	0
0.45	0.299999999999	0
0.45	0.309999999999	0
0.45	0.32	0
0.45	0.33	0
0.45	0.34	0
0.45	0.35	0
0.45	0.36	0
0.45	0.37	0
0.45	0.38	0
0.45	0.39	0
0.45	0.4	0
0.45	0.41	0
0.45	0.42	0
0.45	0.43	0
0.45	0.44	0
0.45	0.45	0
0.45	0.46	0
0.45	0.47	0
0.45	0.48	0
0.45	0.49	0
0.44	0.5	0
0.43	0.5	0
0.42	0.5	0
0.41	0.5	0
0.4	0.5	0
0.39	0.5	0
0.38	0.5	0
0.37	0.5	0
0.36	0.5	0
0.35	0.5	0
0.34	0.5	0
0.33	0.5	0
0.32	0.5	0
0.31	0.5	0
0.3	0.5	0
0.29	0.5	0
0.28	0.5	0
0.27	0.5	0
0.26	0.5	0
0.25	0.5	0
0.240000000001	0.5	0
0.230000000001	0.5	0
0.220000000001	0.5	0
0.210000000001	0.5	0
0.200000000001	0.5	0
0.19	0.5	0
0.18	0.5	0
0.17	0.5	0
0.16	0.5	0
0.15	0.5	0
0.14	0.5	0
0.13	0.5	0
0.12	0.5	0
0.11	0.5	0
0.1	0.5	0
0.09	0.5	0
0.08	0.5	0
0.07	0.5	0
0.06	0.5	0
0.05	0.5	0
0.04	0.5	0
0.03	0.5	0
0.02	0.5	0
0.01	0.5	0
0	0.49	0
0	0.48	0
0	0.47	0
0	0.46	0
0	0.45	0
0	0.44	0
0	0.43	0
0	0.42	0
0	0.41	0
0	0.4	0
0	0.39	0
0	0.38	0
0	0.37	0
0	0.36	0
0	0.35	0
0	0.34	0
0	0.33	0
0	0.320000000001	0
0	0.310000000001	0
0	0.300000000001	0
0	0.290000000001	0
0	0.280000000001	0
0	0.270000000001	0
0	0.260000000001	0
0	0.250000000001	0
0	0.240000000001	0
0	0.230000000001	0
0	0.220000000001	0
0	0.210000000001	0
0	0.200000000001	0
0	0.190000000001	0
0	0.180000000001	0
0	0.170000000001	0
0	0.160000000001	0
0	0.150000000001	0
0	0.140000000001	0
0	0.130000000001	0
0	0.12	0
0	0.11	0
0	0.1	0
0	0.09	0
0	0.08	0
0	0.07	0
0	0.06	0
0	0.05	0
0	0.04	0
0	0.03	0
0	0.02	0
0	0.01	0
0.45	0.01	-0.03
0.45	0.02	-0.03
0.45	0.03	-0.03
0.45	0.04	-0.03
0.45	0.05	-0.03
0.45	0.06	-0.03
0.45	0.07	-0.03
0.45	0.08	-0.03
0.45	0.09	-0.03
0.45	0.1	-0.03
0.45	0.11	-0.03
0.45	0.12	-0.03
0.45	0.13	-0.03
0.45	0.14	-0.03
0.45	0.15	-0.03
0.45	0.16	-0.03
0.45	0.17	-0.03
0.45	0.18	-0.03
0.45	0.19	-0.03
0.45	0.199999999999	-0.03
0.45	0.209999999999	-0.03
0.45	0.219999999999	-0.03
0.45	0.229999999999	-0.03
0.45	0.239999999999	-0.03
0.45	0.249999999999	-0.03
0.45	0.259999999999	-0.03
0.45	0.269999999999	-0.03
0.45	0.279999999999	-0.03
0.45	0.289999999999	-0.03
0.45	0.299999999999	-0.03
0.45	0.309999999999	-0.03
0.45	0.32	-0.03
0.45	0.33	-0.03
0.45	0.34	-0.03
0.45	0.35	-0.03
0.45	0.36	-0.03
0.45	0.37	-0.03
0.45	0.38	-0.03
0.45	0.39	-0.03
0.45	0.4	-0.03
0.45	0.41	-0.03
0.45	0.42	-0.03
0.45	0.43	-0.03
0.45	0.44	-0.03
0.45	0.45	-0.03
0.45	0.46	-0.03
0.45	0.47	-0.03
0.45	0.48	-0.03
0.45	0.49	-0.03
0.44	0.5	-0.03
0.43	0.5	-0.03
0.42	0.5	-0.03
0.41	0.5	-0.03
0.4	0.5	-0.03
0.39	0.5	-0.03
0.38	0.5	-0.03
0.37	0.5	-0.03
0.36	0.5	-0.03
0.35	0.5	-0.03
0.34	0.5	-0.03
0.33	0.5	-0.03
0.32	0.5	-0.03
0.31	0.5	-0.03
0.3	0.5	-0.03
0.29	0.5	-0.03
0.28	0.5	-0.03
0.27	0.5	-0.03
0.26	0.5	-0.03
0.25	0.5	-0.03
0.240000000001	0.5	-0.03
0.230000000001	0.5	-0.03
0.220000000001	0.5	-0.03
0.210000000001	0.5	-0.03
0.200000000001	0.5	-0.03
0.19	0.5	-0.03
0.18	0.5	-0.03
0.17	0.5	-0.03
0.16	0.5	-0.03
0.15	0.5	-0.03
0.14	0.5	-0.03
0.13	0.5	-0.03
0.12	0.5	-0.03
0.11	0.5	-0.03
0.1	0.5	-0.03
0.09	0.5	-0.03
0.08	0.5	-0.03
0.07	0.5	-0.03
0.06	0.5	-0.03
0.05	0.5	-0.03
0.04	0.5	-0.03
0.03	0.5	-0.03
0.02	0.5	-0.03
0.01	0.5	-0.03
0	0.49	-0.03
0	0.48	-0.03
0	0.47	-0.03
0	0.46	-0.03
0	0.45	-0.03
0	0.44	-0.03
0	0.43	-0.03
0	0.42	-0.03
0	0.41	-0.03
0	0.4	-0.03
0	0.39	-0.03
0	0.38	-0.03
0	0.37	-0.03
0	0.36	-0.03
0	0.35	-0.03
0	0.34	-0.03
0	0.33	-0.03
0	0.320000000001	-0.03
0	0.310000000001	-0.03
0	0.300000000001	-0.03
0	0.290000000001	-0.03
0	0.280000000001	-0.03
0	0.270000000001	-0.03
0	0.260000000001	-0.03
0	0.250000000001	-0.03
0	0.240000000001	-0.03
0	0.230000000001	-0.03
0	0.220000000001	-0.03
[...]
CELL_DATA 32928
SCALARS _Attribute double 1
LOOKUP_TABLE default
10.620536120861 11.703229165212 10.856922603255 11.658671721756 10.960073243948 10.933338366553 11.272405773359 10.827965516909 10.806883339738 10.939821169117 10.921689098617 11.589559810071 11.087347004205 11.091184465483 10.183128902913 10.901151476912 10.570573350682 11.245153935551 11.794513373467 11.764580863369 11.313592301591 10.382532468265 11.353927211237 10.692205255301 10.256742371159 17.551038265019 10.327614799156 11.026631882677 11.102503391911 11.672657438935 11.052261222923 10.858508396513 11.159567793822 10.764748308769 10.590132249454 10.602585394509 14.423638344488 14.895103663458 11.125282767209 10.747358494353 18.297581990867 10.907008267175 10.480626295295 10.98850107208 15.917900630057 11.33958490515 49.455434763423 11.045564013439 10.315142699025 11.260880813249 10.40050683903 12.223417890474 10.484205940934 11.216809991777 10.541259862721 11.078559553412 11.235695973205 10.846041132864 10.642541550692 12.23176508971 11.339299594165 10.508017268728 10.963112634929 11.199113766146 11.055943056284 10.782736765766 10.208449231251 11.573201216394 12.670588161512 11.527398392354 10.359107876917 10.184464693575 10.370661931444 14.010961221059 10.603568187619 11.120167026437 10.895565198927 10.000132345893 10.667549343982 11.044062538779 10.590167311973 11.287083353113 12.149518184696 10.202940695994 13.170185334874 15.342049471899 10.576946867293 11.212118458048 10.987146141682 11.224897638697 11.914114479666 11.467609689384 11.691345845551 10.61723184806 15.107616411217 10.261218940886 12.07512680775 11.18507396646 10.841770051063 10.724884327873 11.88332967185 10.746566667039 11.600120344529 10.446457180138 13.652689985074 11.388942752203 10.725686736442 11.258116042801 10.894288666982 11.72557167033 13.001051688597 11.499424456912 10.963546932081 10.461306001102 48.284063538407 11.939459656599 10.9904708858 11.081319411447 10.589147546732 10.821794101964 11.893717621756 11.836668104841 16.433786578978 10.345602488016 11.319677972561 10.999189020394 11.147358877475 10.856760636689 11.644702595968 10.618687210667 11.691956809269 11.464194659456 13.294886093113 10.411203899238 11.461911978084 10.635669639709 10.633757665446 10.080025781923 10.474222680106 10.177151934799 10.856017575225 10.791950747995 11.425703737233 11.458783495776 10.11285158953 11.315901324326 10.876769219644 11.230744697862 10.294220227584 10.862189919503 10.625498820462 10.943217605011 11.857551733629 11.654968594569 10.30910501914 10.45204077564 14.218243135902 12.027101051507 11.25381340593 11.557023376238 11.663664955932 11.116255916662 10.05604526696 11.062750766256 10.935699445019 10.739561568006 10.789807998346 12.290521378433 13.313081277953 11.707923015546 25.529306142227 11.111302218473 11.836183225924 11.585366918019 10.862215793272 11.344147170518 9.8577770978596 10.519330681122 13.383413131211 14.369863274144 11.146324865631 11.077078914637 11.517243330733 28.750534445666 11.543245583545 11.40028938068 10.228393091375 10.206970000374 10.802823769896 11.31431145576 11.18588337363 10.482116604426 11.450356449157 9.9543803464105 10.7893638187 10.211474873551 11.527114765109 11.718374880897 10.947415429479 11.32490705241 10.757564537479 10.902368456932 11.743249338799 10.55541557416 12.867808298771 11.03184178117 11.708886678072 10.54201674121 11.480361465078 10.275251618851 10.156439768543 11.313316051867 10.901766164056 11.702362805041 10.404021317469 11.137639175446 13.908667783306 11.141255876553 10.37788428568 9.9907273142834 11.465849044272 11.799122592972 10.85869174315 10.732475620115 10.34468138084 12.130689320742 10.365154313611 10.348784709741 12.993653777707 10.813461768296 11.307449897343 17.962189350487 10.822691265893 10.85370942297 26.163085182801 10.622911186974 10.9065806704 13.687802107352 10.914017960694 12.891286311058 10.832100607792 10.587491903943 11.035006461992 10.994291429655 11.731011565411 11.491952520066 24.11108800228 11.106496188406 11.586841126722 10.181278841412 11.851832102397 11.66667393856 10.43473451834 9.8191487959929 11.001536467314 10.660167697783 11.124532826685 11.827629580189 30.810036641916 10.959056991241 13.483019854579 11.290943773511 10.993370622328 11.578598780323 12.846005193429 12.712601688342 10.746284635434 12.59048956856 11.1744579777 11.027776087198 10.745961767772 12.253548484878 12.800088931231 9.9356346687488 11.034830167953 11.340612343533 13.122615038756 10.698310617875 10.90131940751 13.793556817835 10.605732603039 10.669235009052 10.955629904137 9.4291187864264 10.08622832361 11.126223591213 11.234611580388 11.0865269557 10.228745307491 10.672436245479 10.497228990566 10.977000683415 10.853618382984 11.563013338104 11.594699477296 10.887594137268 10.846169797835 10.782018928314 11.408592591508 13.137268849059 16.434616873961 10.808486368871 11.414279424305 10.515559220381 11.575116738465 11.366452851165 10.828312242041 9.8787914859622 10.004139491425 10.700348364579 23.679451438573 12.068691239403 10.527546109433 18.774273668751 12.343568972147 11.140529784513 11.1500172144 11.079741536452 11.357816438292 10.304338082896 12.22251841657 10.935728978676 30.347883319435 10.566646129318 16.189880081053 11.360811333259 11.456049429917 11.019235319693 11.436588701925 15.229724844153 11.135481982032 11.442303644871 9.9613963637839 24.624044770168 10.411810939745 11.290489524418 10.99406496537 11.04877820929 12.904726872094 11.401241068747 11.092994407253 11.43638024662 11.198336907893 11.085903171974 9.3986480748512 10.789078432906 11.13080799462 10.86599088426 12.309640030507 12.327491177328 10.87384922481 23.346419801254 10.984231344646 11.950202599615 10.647529914086 11.026003631025 18.468797409964 10.899993371842 11.375054715735 21.427549676979 11.639972132285 11.05010423537 11.185056670351 10.762376750545 11.042747496156 11.199254885522 10.945026844497 11.304469942976 10.870328385122 10.940533410689 10.353284178097 11.255676984056 10.520356023106 11.027756257065 11.041297077069 11.567922803391 11.346684624646 15.966524053165 10.597745302357 10.550230836717 10.671466427671 12.38255809388 11.584403237219 11.988813324357 14.587258762576 11.807083347615 11.071758826198 10.809647086013 11.553584892532 11.149380628244 10.687548222526 11.3151519066 10.554968235504 11.202111490078 10.351242893066 11.175156523402 11.097604201437 10.412730362916 11.401160097673 10.987369626366 11.618250613547 11.548755790441 11.363053861239 10.51468290737 12.202875647571 10.290486047428 10.47904027417 31.593937676393 10.472589772834 11.70763401706 10.677003971177 11.120045828023 17.70769974663 10.242091862538 10.036753829994 10.750619424257 10.459695508829 11.249541948939 10.195534200482 11.139299655376 10.93334869237 10.365385800653 11.046220088248 10.849454490474 11.62944921144 11.395712084456 10.180523441794 11.660663098108 10.627626551527 10.196742292441 11.615782095528 12.457539254549 11.863565756675 11.030085861644 10.101629189029 11.141682092612 10.662222098861 11.310812399189 11.714292723669 10.185444859908 14.594037658456 11.389858845933 14.477439707409 11.19436110814 10.80742309401 12.407963382105 19.054109303892 10.834894804273 11.296949828446 10.864444062447 11.857603159767 10.381193168706 11.212439819888 10.915199018227 13.206670008171 10.673826740191 10.361002045567 10.634448426087 10.870817178787 12.040996264314 11.111136465944 10.774379072254 10.704325814843 10.01859246216 9.7938030177696 10.341383111579 10.083360545971 11.721411376269 10.229422912082 10.684030176786 10.645676302046 11.413627866107 11.140119687258 10.625987053122 10.848619896502 11.061835355855 25.44429999785 10.261844359395 10.60412179406 29.86505444887 13.473881808873 11.278622904571 11.140826508579 11.585466592567 11.608804945553 11.94102406496 11.608612446578 11.198594805974 11.53184113222 11.467225749582 10.91057861882 11.429486179072 10.920335514006 9.935834863555 12.236054122746 10.883459622284 11.569940779141 11.231738098771 12.24775982307 10.8903535857 11.189128654179 10.600293391287 11.033175473745 10.524646629657 11.462827038407 11.814935853306 11.580662270591 10.813788920394 11.615298150506 10.943562658832 11.452987394056 11.767147481339 12.253649833152 10.786451878665 11.427179321504 10.419196718044 10.012195638029 11.310614146226 11.39686330918 11.123356936896 11.958261577561 11.153405606102 10.846157293884 10.466771416636 10.766323877492 11.001938091194 11.109354697551 10.735801389129 11.386768600104 12.129743401197 10.636694619185 10.709323442841 12.08078498578 10.695719863807 12.028279370577 20.007388717854 13.25586195212 11.613972349882 12.495824975181 12.665238833121 11.067357805947 10.315467953754 29.091559525033 9.9568771569055 11.256988674369 10.888283382016 11.688898745274 10.946447495521 11.494664116791 11.681149600204 11.10196511324 11.405070157836 11.141904781964 10.345538149294 12.452433580013 11.000797660608 11.886094053165 11.613842323358 10.472254815192 11.436482435224 10.796450780808 10.970532768384 11.851758625684 11.18150973997 10.571696983874 10.831367062696 12.928034991809 11.241702773156 10.571283464725 11.864722315383 10.409399962186 11.301832084882 12.066757119568 11.092393551641 10.535257655074 10.989602113729 11.465095251626 11.875886083659 13.136089412756 10.999829115201 10.711002074136 11.151282055744 11.36354636173 11.450252193305 10.039238214513 12.5287025121 11.68043147784 11.342376586155 11.715743888545 11.31616140095 11.676888216088 10.683030826392 11.552695346778 17.442935874922 10.506509909057 11.770909667765 10.857508044532 10.760949135933 11.278177873437 10.872787800192 11.850442701679 10.534929256704 10.844616730925 12.825402375491 11.057654569162 11.189456100476 10.110710237515 41.230822290475 11.022103724679 11.670210443245 11.520156356142 11.220699126297 11.338675582716 11.20907703852 10.726964324591 10.692549523678 11.680653101577 11.772150058172 11.063245320434 11.587145622722 11.477473321849 10.544090158932 11.047688468059 11.604176046739 10.986094341511 11.062646031052 11.112841200899 10.929021212668 10.726936561216 11.130298413327 10.0889423848 11.513347917851 10.88884711341 10.900038240037 11.23623640965 12.334672260645 10.86780329356 10.589262620231 10.697528983582 10.908120091011 10.887462732941 11.027812595072 10.474651076384 11.185578493799 11.094095449486 10.009939303359 10.629271173574 11.777606291361 10.894043352322 9.9806817375915 12.000762377162 11.043438196026 10.226943607255 13.567421111518 10.949162684032 11.514717936217 11.775533089722 13.33898216185 12.185193212526 10.158716968037 11.692121434648 15.320310167416 11.162529447239 11.472371863593 10.391384319722 10.710910985766 11.366732990418 11.357277905073 11.418775253754 10.337194012493 12.06182235821 10.424469569683 11.31515569046 10.54771056302 11.373059518912 10.246791171166 10.502073396876 11.290585219945 15.150086148508 10.654536905072 10.637146468057 10.312574902176 11.85090684496 11.291041818212 11.224741238398 11.81392542968 11.549895437191 12.486704839207 10.736036631854 10.702926819402 12.156542746609 11.925748993715 11.622330178992 11.009115588477 11.274664623793 11.104974259323 10.768329138158 11.817294397004 11.504440123889 12.478581669484 22.547107031441 10.131857351481 10.860376252532 11.548745823629 14.798914123595 10.73217257795 11.504537622337 10.848915988678 10.715126394756 10.349860594538 11.727447114838 10.682777189923 12.46259330613 10.410724046771 10.997416693516 13.890316307479 10.643406594071 11.578271475143 12.239300913277 11.230998996283 10.857465483643 13.67141832162 10.284332387881 11.192373803194 11.008766850998 11.407068643419 10.953086857744 10.452360879826 11.20539789376 10.998656547012 11.021883652447 16.303393119874 10.582017475619 12.911222129756 11.15281471632 11.082484356449 10.022724150561 11.227069334563 9.4486569158389 10.926300802876 10.99836836053 10.778903628762 11.947596317487 11.253604381254 10.13770913769 12.43300888291 10.757861303097 11.23064774404 37.359451414612 12.057104246124 9.880557817154 11.066272191578 11.444015162493 10.748883678903 27.178507267726 10.526858140603 12.667410025244 10.636498704838 10.823102089892 10.792104231621 10.977134572188 12.898125324139 10.438636718016 11.271765956828 10.724111772036 11.449644240169 31.782816810247 10.628935852191 10.653873460347 12.856238334078 10.265987528647 11.648800727869 11.361868639975 10.712586604737 13.819138906595 11.026146024802 10.219749059994 12.35276490971 11.457346420149 10.310764013344 9.2931039614801 10.970103574622 11.181738950596 10.940612114768 11.956726610172 11.122921431359 11.361481767071 11.206290881406 11.700452027214 10.832088375853 11.134908654399 11.230756656722 11.23899934686 10.280131387668 10.857345924527 10.170508468603 17.589941057317 11.598185797878 12.109557354109 11.471940273247 10.803196269057 10.076335461641 10.261297610117 15.42344193705 11.504348086007 12.126796372906 11.004747902929 11.039850892999 10.10403745132 10.740322736705 10.843587453745 10.992056504497 12.57405896005 14.047205651467 11.323036409208 12.941251599979 9.7989399199026 10.729795610497 10.558018279114 10.890243478208 11.403791643785 11.341643216933 11.165596088598 11.017389956463 11.032299901768 11.929641327391 11.418985191713 12.026681855966 10.882824755706 11.471715959529 11.646764243669 15.765553764853 10.496460049007 12.232511998577 12.225873751561 11.0024686111 10.947734420759 13.285254549692 10.756503574462 10.878867551477 10.528115523873 11.27634735131 18.132446415145 11.24328877368 11.27318172041 11.025228429108 11.185494945788 19.245156185046 28.754119089091 12.961607310159 11.528156037108 10.919717232882 13.035042871957 11.183945392444 10.671968767151 10.079337137669 11.262645984001 11.425253154922 10.842287011831 10.871667864096 10.607669443925 11.164198200939 10.898947038099 11.10124090905 10.94218675801 10.712539978733 11.066027829977 13.079757942648 17.155697500635 11.034816094409 10.813237638001 14.342185264975 11.646299762288 11.813451131479 19.17495206112 10.405132789144 12.685041650541 11.765574237943 12.1019111678 11.096074706761 11.366231774864 10.579175679752 10.69420257201 10.389158161885 10.694844883352 11.485064257639 10.903319614225 11.757180979594 10.79763608485 21.979074735709 10.663270955136 10.010058868483 11.011655280292 12.187583489849 10.614461203785 11.011078566512 10.649510508492 10.744459001015 10.734767995199 10.461965309397 10.74228993294 10.891117365221 10.994245090264 10.493718915707 11.392050994936 12.826000350845 27.268430265062 10.38193446451 11.1514379137 11.641723357026 11.262936544437 11.816157844409 10.512247328903 11.430228899594 12.032709465375 12.174676061957 11.060641172472 13.686853095879 19.233693265942 10.982102440807 12.039489764728 11.009165576922 11.904674365882 11.310640479602 11.00430112584 12.062877122499 11.275739972224 10.38060102151 11.080948222353 11.625934425115 10.081686102813 11.853596111306 10.697726587618 11.249362856836 11.041460848673 10.551112566953 12.007004917471 13.948760624664 11.364646874361 10.477493277974 11.513424206461 12.538656488581 11.26413911393 10.3772302498 10.799074745978 11.186118987096 10.412528824845 11.089803852228 10.418896874814 10.844915311539 12.12201254091 10.874662895725 12.391789210852 10.986756587395 11.269227889181 11.224911494288 11.111353576754 9.7311612631241 11.660515900166 11.995159384045 16.98338212108 11.096461749463 10.63282866205 11.514309451603 12.352854349209 11.390376808746 10.797906676884 10.46830669317 10.805557143739 11.066585831027 11.272662933098 10.655290114684 38.834776426226 21.233695438993 41.326653730759 10.965889578123 15.742159795108 10.567919583246 10.838173020455 10.987176773711 14.281446139372 11.711390857831 11.287481197771 11.88453822628 10.923578778935 41.40352229676 10.724924713209 10.825997417504 13.62878242729 10.626645166294 11.291468060233 10.557953015543 45.537685606984 12.747745174781 11.890232870319 11.712321170345 11.571931789339 10.756955205277 11.136718825245 12.456790122262 11.235420108694 11.289194486381 10.609882716258 11.003619645545 10.2918048025 10.844243681507 11.758430820861 11.383206763245 10.189993521397 15.217848427604 10.86182130463 12.219555315386 10.43316313785 11.21447130798 11.303870130832 11.650020537583 11.029666820325 11.390670635594 10.388383182388 12.317023618347 10.724130172515 11.578680895176 11.75562545661 10.91158437672 11.19820416494 12.490550230254 11.813215254119 28.732468156241 12.349668942774 11.100311309543 10.958370602497 11.294423116387 11.140579288086 11.561178538911 11.724969279657 14.53378043309 10.106628903401 11.593435067065 10.871836755449 10.390375171099 10.6905910094 11.36392828506 10.852015115808 10.643201261308 10.409159823447 12.766619874366 9.6109097064734 11.701941070128 11.433946415839 11.059839613057 11.070366551899 16.693958615194 10.356984072517 11.364252799716 10.594231151255 10.192497734497 10.73637043815 11.722999008834 10.034444960997 11.443425803099 10.86548287441 10.901892060962 11.770064004251 11.012512580929 10.758195925994 11.120956043453 11.036990967251 10.351476687531 11.249059729183 11.954604946997 10.500227437377 11.769228236667 11.182005713376 10.722323698939 11.602370559432 11.565313537117 10.165525780077 10.565768868862 11.382130430551 10.593565470059 10.919148871729 10.050210259412 11.093248997603 10.688983430454 11.184481879513 10.908687115004 11.115400512026 10.69772687794 11.067137764058 11.292436849408 13.700633659987 10.679467314914 10.864111627624 10.719763976933 13.669306664864 11.100942370646 11.501094377492 12.095932123138 10.606560522889 11.155678563766 12.433404061598 11.370275827801 10.872262849986 12.126244006871 11.72697227092 10.452228987074 10.86269333647 10.369887514258 10.994775361606 11.141749706866 11.500600778242 10.348176129265 46.544816315931 11.311094455939 13.117168862274 13.044987767167 10.367033584526 13.864108987344 11.013611253056 10.933059886445 10.576331640465 10.747456794891 9.8340554815905 10.687644866028 10.201427969783 11.00350445883 12.335233203522 10.949532457652 23.458828903697 11.187306465318 11.280732267968 11.258834078577 10.334687518734 11.653453525448 11.20119473675 10.155375325313 10.541271670092 11.539371426297 11.48753013937 11.459490063644 10.237154859068 12.461798468656 10.718497562115 10.687372182738 11.043878871692 10.971477879031 10.820323840187 10.355799819438 10.934288062695 28.623485857514 10.56029786965 10.413116333211 11.228971383359 13.385255313988 11.508350578573 11.308751020241 10.336666723999 13.471327072318 11.282888819979 11.103468053602 11.790110375446 11.259783670193 10.525017247001 11.282757487243 11.039422474755 13.053697737797 11.150107032109 10.044909407304 11.159388625899 10.905757093899 11.25302711614 11.055243686643 11.807153677411 14.899909470079 9.8389071433105 10.83420466833 10.918602273797 14.775317586707 11.134225594881 11.249737070565 11.001163554717 11.983399610369 11.056505605691 11.452439769434 11.53671995762 12.007122846326 10.186806344417 10.879894956548 11.489687027226 10.972053917229 14.637720821256 11.01079951936 11.154389749943 11.904829846256 11.279184921772 13.981619032199 13.830340766821 10.727974107576 10.530059708262 12.382351432284 10.016849896203 10.72416656854 10.869910129379 10.762300739115 10.706187643039 10.347218884277 11.164865097306 13.895804946706 17.780176894677 10.84271852034 11.511015507747 11.07909808587 11.16858263831 11.807101399838 10.989535001855 10.46255522103 10.407929383006 10.988729867455 10.027579399077 11.647939692509 11.497475170011 11.851761052108 10.818332242624 10.74102925277 10.589505904186 10.892898224429 11.50032334989 11.0274705252 12.137489843737 11.630009144948 19.10887012973 11.698044145282 11.535351349986 12.982523571306 11.356049464024 11.435870098175 10.547104795252 11.602946697804 13.637738826612 11.958244728796 10.963330281521 10.472231891097 11.212316410092 10.73996030339 10.991664697353 10.873190279071 10.251230809224 11.643827200619 11.417367205766 11.288893085222 10.443977696514 11.680185341349 10.83939747027 9.9535871142793 10.162029442553 28.344122367888 10.83071934410