# vtk DataFile Version 3.0
Output from R3t
ASCII
DATASET UNSTRUCTURED_GRID
POINTS       8652 double
      0.50000000E-01     -0.50000000E-02      0.48500000E+00
      0.10000000E+00     -0.50000000E-02      0.48500000E+00
      0.15000000E+00     -0.50000000E-02      0.48500000E+00
      0.20000000E+00     -0.50000000E-02      0.48500000E+00
      0.25000000E+00     -0.50000000E-02      0.48500000E+00
      0.30000000E+00     -0.50000000E-02      0.48500000E+00
      0.35000000E+00     -0.50000000E-02      0.48500000E+00
      0.40000000E+00     -0.50000000E-02      0.48500000E+00
      0.50000000E-01      0.00000000E+00      0.42500000E+00
      0.10000000E+00      0.00000000E+00      0.42500000E+00
      0.15000000E+00      0.00000000E+00      0.42500000E+00
      0.20000000E+00      0.00000000E+00      0.42500000E+00
      0.25000000E+00      0.00000000E+00      0.42500000E+00
      0.30000000E+00      0.00000000E+00      0.42500000E+00
      0.35000000E+00      0.00000000E+00      0.42500000E+00
      0.40000000E+00      0.00000000E+00      0.42500000E+00
      0.50000000E-01      0.00000000E+00      0.37500000E+00
      0.10000000E+00      0.00000000E+00      0.37500000E+00
      0.15000000E+00      0.00000000E+00      0.37500000E+00
      0.20000000E+00      0.00000000E+00      0.37500000E+00
      0.25000000E+00      0.00000000E+00      0.37500000E+00
      0.30000000E+00      0.00000000E+00      0.37500000E+00
      0.35000000E+00      0.00000000E+00      0.37500000E+00
      0.40000000E+00      0.00000000E+00      0.37500000E+00
      0.50000000E-01      0.00000000E+00      0.32500000E+00
      0.10000000E+00      0.00000000E+00      0.32500000E+00
      0.15000000E+00      0.00000000E+00      0.32500000E+00
      0.20000000E+00      0.00000000E+00      0.32500000E+00
      0.25000000E+00      0.00000000E+00      0.32500000E+00
      0.30000000E+00      0.00000000E+00      0.32500000E+00
      0.35000000E+00      0.00000000E+00      0.32500000E+00
      0.40000000E+00      0.00000000E+00      0.32500000E+00
      0.50000000E-01      0.00000000E+00      0.27500000E+00
      0.10000000E+00      0.00000000E+00      0.27500000E+00
      0.15000000E+00      0.00000000E+00      0.27500000E+00
      0.20000000E+00      0.00000000E+00      0.27500000E+00
      0.25000000E+00      0.00000000E+00      0.27500000E+00
      0.30000000E+00      0.00000000E+00      0.27500000E+00
      0.35000000E+00      0.00000000E+00      0.27500000E+00
      0.40000000E+00      0.00000000E+00      0.27500000E+00
      0.50000000E-01      0.00000000E+00      0.22500000E+00
      0.10000000E+00      0.00000000E+00      0.22500000E+00
      0.15000000E+00      0.00000000E+00      0.22500000E+00
      0.20000000E+00      0.00000000E+00      0.22500000E+00
      0.25000000E+00      0.00000000E+00      0.22500000E+00
      0.30000000E+00      0.00000000E+00      0.22500000E+00
      0.35000000E+00      0.00000000E+00      0.22500000E+00
      0.40000000E+00      0.00000000E+00      0.22500000E+00
      0.50000000E-01      0.00000000E+00      0.17500000E+00
      0.10000000E+00      0.00000000E+00      0.17500000E+00
      0.15000000E+00      0.00000000E+00      0.17500000E+00
      0.20000000E+00      0.00000000E+00      0.17500000E+00
      0.50000000E-01      0.00000000E+00      0.12500000E+00
      0.10000000E+00      0.00000000E+00      0.12500000E+00
      0.15000000E+00      0.00000000E+00      0.12500000E+00
      0.20000000E+00      0.00000000E+00      0.12500000E+00
      0.25000000E+00      0.00000000E+00      0.12500000E+00
      0.30000000E+00      0.00000000E+00      0.12500000E+00
      0.35000000E+00      0.00000000E+00      0.12500000E+00
      0.40000000E+00      0.00000000E+00      0.12500000E+00
      0.50000000E-01      0.00000000E+00      0.75000000E-01
      0.10000000E+00      0.00000000E+00      0.75000000E-01
      0.15000000E+00      0.00000000E+00      0.75000000E-01
      0.20000000E+00      0.00000000E+00      0.75000000E-01
      0.25000000E+00      0.00000000E+00      0.75000000E-01
      0.30000000E+00      0.00000000E+00      0.75000000E-01
      0.35000000E+00      0.00000000E+00      0.75000000E-01
      0.40000000E+00      0.00000000E+00      0.75000000E-01
      0.00000000E+00      0.00000000E+00      0.00000000E+00
      0.45000000E+00      0.00000000E+00      0.00000000E+00
      0.00000000E+00      0.00000000E+00      0.50000000E+00
      0.45000000E+00      0.00000000E+00      0.50000000E+00
      0.00000000E+00     -0.30000000E-01      0.00000000E+00
      0.45000000E+00     -0.30000000E-01      0.00000000E+00
      0.00000000E+00     -0.30000000E-01      0.50000000E+00
      0.45000000E+00     -0.30000000E-01      0.50000000E+00
      0.00000000E+00     -0.30000000E-01      0.10000000E-01
      0.00000000E+00     -0.30000000E-01      0.20000000E-01
      0.00000000E+00     -0.30000000E-01      0.30000000E-01
      0.00000000E+00     -0.30000000E-01      0.40000000E-01
      0.00000000E+00     -0.30000000E-01      0.50000000E-01
      0.00000000E+00     -0.30000000E-01      0.60000000E-01
      0.00000000E+00     -0.30000000E-01      0.70000000E-01
      0.00000000E+00     -0.30000000E-01      0.80000000E-01
      0.00000000E+00     -0.30000000E-01      0.90000000E-01
      0.00000000E+00     -0.30000000E-01      0.10000000E+00
      0.00000000E+00     -0.30000000E-01      0.11000000E+00
      0.00000000E+00     -0.30000000E-01      0.12000000E+00
      0.00000000E+00     -0.30000000E-01      0.13000000E+00
      0.00000000E+00     -0.30000000E-01      0.14000000E+00
      0.00000000E+00     -0.30000000E-01      0.15000000E+00
      0.00000000E+00     -0.30000000E-01      0.16000000E+00
      0.00000000E+00     -0.30000000E-01      0.17000000E+00
      0.00000000E+00     -0.30000000E-01      0.18000000E+00
      0.00000000E+00     -0.30000000E-01      0.19000000E+00
      0.00000000E+00     -0.30000000E-01      0.20000000E+00
      0.00000000E+00     -0.30000000E-01      0.21000000E+00
      0.00000000E+00     -0.30000000E-01      0.22000000E+00
      0.00000000E+00     -0.30000000E-01      0.23000000E+00
      0.00000000E+00     -0.30000000E-01      0.24000000E+00
      0.00000000E+00     -0.30000000E-01      0.25000000E+00
      0.00000000E+00     -0.30000000E-01      0.26000000E+00
      0.00000000E+00     -0.30000000E-01      0.27000000E+00
      0.00000000E+00     -0.30000000E-01      0.28000000E+00
      0.00000000E+00     -0.30000000E-01      0.29000000E+00
      0.00000000E+00     -0.30000000E-01      0.30000000E+00
      0.00000000E+00     -0.30000000E-01      0.31000000E+00
      0.00000000E+00     -0.30000000E-01      0.32000000E+00
      0.00000000E+00     -0.30000000E-01      0.33000000E+00
      0.00000000E+00     -0.30000000E-01      0.34000000E+00
      0.00000000E+00     -0.30000000E-01      0.35000000E+00
      0.00000000E+00     -0.30000000E-01      0.36000000E+00
      0.00000000E+00     -0.30000000E-01      0.37000000E+00
      0.00000000E+00     -0.30000000E-01      0.38000000E+00
      0.00000000E+00     -0.30000000E-01      0.39000000E+00
      0.00000000E+00     -0.30000000E-01      0.40000000E+00
      0.00000000E+00     -0.30000000E-01      0.41000000E+00
      0.00000000E+00     -0.30000000E-01      0.42000000E+00
      0.00000000E+00     -0.30000000E-01      0.43000000E+00
      0.00000000E+00     -0.30000000E-01      0.44000000E+00
      0.00000000E+00     -0.30000000E-01      0.45000000E+00
      0.00000000E+00     -0.30000000E-01      0.46000000E+00
      0.00000000E+00     -0.30000000E-01      0.47000000E+00
      0.00000000E+00     -0.30000000E-01      0.48000000E+00
      0.00000000E+00     -0.30000000E-01      0.49000000E+00
      0.10000000E-01     -0.30000000E-01      0.50000000E+00
      0.20000000E-01     -0.30000000E-01      0.50000000E+00
      0.30000000E-01     -0.30000000E-01      0.50000000E+00
      0.40000000E-01     -0.30000000E-01      0.50000000E+00
      0.50000000E-01     -0.30000000E-01      0.50000000E+00
      0.60000000E-01     -0.30000000E-01      0.50000000E+00
      0.70000000E-01     -0.30000000E-01      0.50000000E+00
      0.80000000E-01     -0.30000000E-01      0.50000000E+00
      0.90000000E-01     -0.30000000E-01      0.50000000E+00
      0.10000000E+00     -0.30000000E-01      0.50000000E+00
      0.11000000E+00     -0.30000000E-01      0.50000000E+00
      0.12000000E+00     -0.30000000E-01      0.50000000E+00
      0.13000000E+00     -0.30000000E-01      0.50000000E+00
      0.14000000E+00     -0.30000000E-01      0.50000000E+00
      0.15000000E+00     -0.30000000E-01      0.50000000E+00
      0.16000000E+00     -0.30000000E-01      0.50000000E+00
      0.17000000E+00     -0.30000000E-01      0.50000000E+00
      0.18000000E+00     -0.30000000E-01      0.50000000E+00
      0.19000000E+00     -0.30000000E-01      0.50000000E+00
      0.20000000E+00     -0.30000000E-01      0.50000000E+00
      0.21000000E+00     -0.30000000E-01      0.50000000E+00
      0.22000000E+00     -0.30000000E-01      0.50000000E+00
      0.23000000E+00     -0.30000000E-01      0.50000000E+00
      0.24000000E+00     -0.30000000E-01      0.50000000E+00
      0.25000000E+00     -0.30000000E-01      0.50000000E+00
      0.26000000E+00     -0.30000000E-01      0.50000000E+00
      0.27000000E+00     -0.30000000E-01      0.50000000E+00
      0.28000000E+00     -0.30000000E-01      0.50000000E+00
      0.29000000E+00     -0.30000000E-01      0.50000000E+00
      0.30000000E+00     -0.30000000E-01      0.50000000E+00
      0.31000000E+00     -0.30000000E-01      0.50000000E+00
      0.32000000E+00     -0.30000000E-01      0.50000000E+00
      0.33000000E+00     -0.30000000E-01      0.50000000E+00
      0.34000000E+00     -0.30000000E-01      0.50000000E+00
      0.35000000E+00     -0.30000000E-01      0.50000000E+00
      0.36000000E+00     -0.30000000E-01      0.50000000E+00
      0.37000000E+00     -0.30000000E-01      0.50000000E+00
[...]
POINT_DATA      8652
CELL_DATA     32557
SCALARS Resistivity(ohm.m) double 1
LOOKUP_TABLE default
            11.60016            11.92606            11.61885            11.96923            11.87802            10.44699            12.22908            11.95543            11.94368            11.23943            11.18725            10.28496             9.75839            12.14367            12.01046            11.76353            11.45619            12.71567            11.49038            12.41155            12.02187            11.46652            11.48506            11.29089            11.72698            11.51876            11.71916            12.03519            12.21316            11.24293            11.94756            11.33356            11.43006            11.91552            11.47069            12.18730            11.57764            12.37220            11.36651            11.94612            11.89101            12.41242            12.24231            12.04020            12.45528            12.03372            12.00250            12.24225            12.11872            12.95992            11.09074            12.36039            11.13678            12.03898            11.75960            11.77256            11.17659            11.22490            12.56626            11.59983            11.81590            11.19487            12.01742            12.13503            12.81765            11.90742            12.27057            12.09455            10.28493            11.52683            11.90316            11.40280            12.00655            11.43516            12.13697            11.45582            12.97223            12.80040            11.37320            10.78572            11.99853            11.95885            11.79194            11.70436            11.93907            11.47887            11.50212            12.13903            11.91600            10.77839            11.49678            11.41452            12.28745            12.30238            11.95491            11.46277            12.54187            12.08432            11.53760            11.11300            11.24686            11.55998            12.07724            11.93040            11.48738            11.90654            11.43712            12.29793             9.80919            10.87560            12.91832            12.27815            11.66189            12.26358            11.75818            11.64031            11.43946            12.20818            11.53863            11.34981            11.97523            11.42243            12.28142            11.10353            12.12515            11.89864            11.93456            11.91384            11.59127            12.01515            11.94105            12.20369            11.40364            11.55594            10.35251            12.06842            11.82659            12.06734            11.62089            11.83426            12.27602            11.19987            12.00818            12.25854            11.34995            12.97522            11.51339            10.94573            11.96642            11.66952            11.98520            11.36391            10.81925            12.84275            11.95619            11.43473            12.16775            11.01543            12.32424            12.54277            11.65545            12.52868            10.91326            12.11271            12.06274            12.06981            12.11100            11.76634            11.23201            11.46607            11.47041            11.04457            12.28996            11.50443            11.00337            11.30744            11.23276            11.96073            11.91079            12.01117            12.04051            12.29294            11.80622            11.84574            12.39972            12.17311            11.78712            11.91028            11.98553            12.21524            11.55693            11.65389            11.27057            11.23868            11.54033            12.11196            11.55669            12.07444            12.05328            12.25145            11.86405            11.91195            11.98989            12.25330            11.53208            12.38329            11.52856            11.45101            11.82632            12.24805            11.83765            12.02999            12.03550            11.80567            11.31713            11.98688            11.64234            11.81238            11.58117            12.03218            12.38493            11.00693            11.36621            12.79560            11.73091            11.29056            12.38358            12.03143            12.04371            12.37333            11.70299            12.35962            11.71318            11.75220            11.57811            11.28186            11.90600            11.58389            11.76857            11.39122            12.39684            12.43331            11.94278            11.63697            12.02690            10.69316            11.92198            12.07101            12.00695            12.05540            11.80174            11.62490            11.99535            10.70650            11.38727            11.45525            12.08174            10.86279            10.83028            12.31089            11.34636            12.42197            11.62935            11.69044            11.53445            12.04495            11.95837            10.76980            11.45649            11.96856            11.74459            11.35219            11.36392            11.00372            11.99034            11.26090            10.81086            11.64379            11.94812            11.61842            10.43215            11.71884            11.43095            12.11594            11.20295            11.51024            11.61752            11.99888            11.97573            11.89558            11.98207            12.03873            11.90492            11.52583            11.96210            11.21669            11.24293            11.50363            12.06714            11.80455            11.93090            11.96739            12.76379            11.60690            11.48580            11.57681            11.56433            11.49403            11.74488            10.76979            11.34710            12.53110            11.64986            11.96144            11.69202            12.01878            11.84395            12.25433            13.14159            11.83903            11.95340            11.81259            11.52233            11.42962            11.97303            11.95104            12.29921            12.07490            11.62086            11.96920            11.57987            11.97515            11.99346            11.32019            12.56250            11.79365            11.53894            11.67456            11.86043            10.65538            11.46092            12.23286            12.80366            12.07530            10.87404            12.01822            11.77816            11.87570            12.17961            11.88949            11.90177            12.33590            11.71818            11.35500            12.42288            12.01164            11.59526            11.33282            11.98385            11.60777            12.14167            11.41025            11.69031            11.30666            12.19204            11.78002            12.00879            11.51673            10.70617            11.63525            12.10425            11.26930            11.90615            11.94596            12.08230            11.21949            11.70528            11.72817            11.99956            12.13933            11.41414            12.43482            12.73943            11.61591            11.17342            11.73577            12.13958            11.69150            12.04654            12.06354            10.05100            10.75380            11.17291            13.04354            11.69759            11.28549            12.00700            12.06172            11.83007            11.48777            12.04402            11.61159            11.88466            12.30425            11.05503            12.52305            11.22324            11.87583            11.49469            11.83561            11.92042            11.42239            11.37368            11.91670            11.57872            12.09486            11.99982            12.01953            11.19574            12.60312            11.55540            12.52203            11.42356            11.04444            11.97173            12.29143            12.02605            11.80506            11.96085             9.71971            12.27061            11.52732            12.84125            11.33568            12.10341            12.41727            13.13951            10.29976            11.93063            12.16562            12.29588            11.51852            10.78387            12.15484            12.24540            12.93131            11.45579            12.21657            12.27908            10.82497            11.72780            12.33840            10.81155            11.95127            12.01474            11.50376            11.87836            12.08562            12.16775            11.96088            11.95581            11.31930            11.79889            11.23741            12.85230            11.91799            12.27997            11.95081            11.97943            11.13779            11.57441            12.09921            12.27597            11.96402            11.76471            11.40438            11.37872            10.66149            12.15193            11.99059            12.13543            11.92292            11.94398            10.65251            11.51052            11.98706            12.29900            12.05874            11.52162            11.97832            11.35681            12.34726            12.01087            12.08252            11.31111            11.75018            11.88716            12.23119            10.42327            12.57324            11.88495            11.45805            12.90834            12.02677            11.81114            11.46647            12.31008            12.15119            11.89295            12.04436            11.65971            10.71853            11.63670            11.82553            11.80386            12.18167            11.64079            11.96707            11.97666            12.21035            11.14405            11.74935            12.24038            11.46588            12.12473            11.88140            11.55885            12.98667            11.95375            11.99384            11.79893            11.32923            11.47817            12.18291            11.86672            11.29278            11.81265            11.29607            11.02308            11.14624            11.42045            11.91284            12.00051            11.51974            11.84687            12.05848            11.63845            11.09222            12.03700            11.23484            11.30976            12.28466            11.65104            11.36107            11.72851            11.54664            12.22835            11.38576            11.78182            11.45234            12.07801            11.96959            11.96847            11.70609            12.09174            12.71590            11.99426            11.59745            11.49294            11.97334            11.97773            12.03929            11.79674            12.01346            11.67915            11.97313            11.22455            12.34844            11.49323            11.97569            11.98856            12.29319            11.69029            11.38767            11.79254            11.27285            11.71705            12.38734            11.50881            12.02948            12.08454            11.62443            10.54876            11.91826            11.67679            11.91534            11.43470            12.03023            12.12254            11.93514            11.52276            11.31559            11.90709            11.75967            11.00939            11.96328            11.72673            11.97965            11.24829            11.39727            11.84244            11.33973            11.72932            11.97221            12.92333            12.28043            11.38161            11.79681            12.03877            12.15880            11.12326            11.96166            11.29512            11.93306            10.44708            11.46426            11.95674            12.26276            12.07491            12.89704            12.12023            10.87039            12.86352            12.03231            12.55180            12.02056            11.53641            12.43321            12.27851            11.76459            11.85134            11.80531            12.03283            11.58062            12.18676            10.98633            11.60531            10.33494            12.34463            11.89862            12.16613            12.46630            11.63241            11.24241            11.26744            11.82622            11.43995            12.09291            11.19521            12.03854            11.39550            11.56349            11.67922            11.94501            12.02393            11.59987            10.85752            12.31499            12.06550            11.96925            11.81973            11.40826            11.95154            12.38297            12.39237            11.72118            11.55919            12.05958            12.14713            12.06458            12.60754            11.98469            11.65987            12.31775            11.64781            11.98948            11.54074            11.49958            10.84711            12.31884            11.77126            10.89248            11.69751            12.00151            11.41997            12.14449            12.17296            11.97102            12.37523            12.16992            11.92826            11.54792            12.99119            11.45861            12.00389            12.30178            11.37457            11.15990            11.57042            11.99107            12.08672            11.21075            11.98522            10.83729            12.04328            11.96098            12.04902            11.97329            10.89735            12.08198            10.65362            11.34851            11.87805            11.96904            12.01257            11.91076            12.42814            11.47772            12.27173            12.11920            12.27429            12.42805            11.71867            11.06104            11.99247            11.58533            12.05491            11.49442            12.26088            12.86032            12.01701            11.98160            10.16463            11.97104            11.38763            12.46592            11.65558            11.43007            11.79922            11.70075            11.92193            11.88633            11.45589            11.94578            11.89519            11.25242            11.27720            12.01868            11.99912            11.22735            11.98744            11.10102            11.61448            11.80960            12.24842            12.96153            11.49749            11.48348            12.12658            12.06979            11.43871            11.45116            11.67291            11.19906            12.04301            11.97618            12.10823            12.02570            12.34671            11.79217            11.64310            11.98632            11.44706            11.60568            12.15994            11.51898            11.59806            12.59125            11.32917            11.91890            12.40921            12.21191            12.01389            12.82357            11.32267            11.30740            12.39054            10.94007            11.60322            11.92465            11.77047            13.19416            11.22363            11.74057            12.05195            11.68258            12.02727            11.59239            12.12999            11.33240            11.86874            11.36516            11.07320            11.79845             9.74984            12.02448            12.26425            12.04833            12.28297            12.31266            12.12214            10.67712            12.13582            12.33927            11.34100            12.04546            11.49545            11.19097            12.08273            11.62801            12.00745            12.00336            11.39868            11.92283            12.36328            11.35888            11.95567            11.97983            12.89859            12.00933            11.32510            11.47048            10.87308            11.91617            12.00279            12.16073            11.78616            12.08968            11.73424            12.04568            11.86970            11.55423            12.37187            12.31107            11.55735            12.15463            12.18302            11.80627            11.71001            11.57978            11.32095            12.72173            12.22080            11.28965            11.80684            12.11283            12.16978            11.33628            12.16888            12.85556            12.92502            11.83389            11.38394            10.92310            12.02836            12.01961            12.13209            11.66448            12.13816            11.97619            12.01587            11.00564            12.33665            11.55548            12.20765            11.96854            11.42626            12.08253            11.94005            12.04864            10.78453            11.82341            11.99452            12.06969            11.65347            12.35857            12.62849            11.35868            12.34684            11.38510            11.73575            12.81375            11.44702            11.95854            12.19220            11.62607            12.01861            12.01441            11.17153            11.98001            11.22493            11.80234            12.05518            11.64069            11.73697            12.04481            10.94028            11.00431            11.60027            11.57942            11.54196            12.15580            11.26623            12.07528            12.01166            12.29342            11.84388            12.25542            10.23591            11.40984             9.93909            11.94754            11.41559            12.06397            11.44722            12.23909            12.15886            11.56755            11.96988            11.55921            11.16085            12.45311            11.12138            12.13695            11.89366            11.61633            10.68604            12.50515            11.94328            12.26998            11.97636            11.56424            11.05278            11.28874            11.43385            11.92933            12.37068            11.73044            11.34965            12.29696            11.98124            11.22739            12.06901            12.42434            12.83587            11.57681            11.36856            11.43078            11.89718            12.14651            11.74790            12.04830            11.62079            10.90105            11.39383            12.76786            11.59031            11.56729            12.02319            11.84342            12.05216            11.31369            11.30678            11.56458            12.00649            12.07163            12.03980            11.29901            12.11781            11.30794            10.93027            12.23495            11.87739            11.14376            11.76734  