# vtk DataFile Version 3.0
Output from R3t
ASCII
DATASET UNSTRUCTURED_GRID
POINTS       8652 double
      0.50000000E-01     -0.50000000E-02      0.48500000E+00
      0.10000000E+00     -0.50000000E-02      0.48500000E+00
      0.15000000E+00     -0.50000000E-02      0.48500000E+00
      0.20000000E+00     -0.50000000E-02      0.48500000E+00
      0.25000000E+00     -0.50000000E-02      0.48500000E+00
      0.30000000E+00     -0.50000000E-02      0.48500000E+00
      0.35000000E+00     -0.50000000E-02      0.48500000E+00
      0.40000000E+00     -0.50000000E-02      0.48500000E+00
      0.50000000E-01      0.00000000E+00      0.42500000E+00
      0.10000000E+00      0.00000000E+00      0.42500000E+00
      0.15000000E+00      0.00000000E+00      0.42500000E+00
      0.20000000E+00      0.00000000E+00      0.42500000E+00
      0.25000000E+00      0.00000000E+00      0.42500000E+00
      0.30000000E+00      0.00000000E+00      0.42500000E+00
      0.35000000E+00      0.00000000E+00      0.42500000E+00
      0.40000000E+00      0.00000000E+00      0.42500000E+00
      0.50000000E-01      0.00000000E+00      0.37500000E+00
      0.10000000E+00      0.00000000E+00      0.37500000E+00
      0.15000000E+00      0.00000000E+00      0.37500000E+00
      0.20000000E+00      0.00000000E+00      0.37500000E+00
      0.25000000E+00      0.00000000E+00      0.37500000E+00
      0.30000000E+00      0.00000000E+00      0.37500000E+00
      0.35000000E+00      0.00000000E+00      0.37500000E+00
      0.40000000E+00      0.00000000E+00      0.37500000E+00
      0.50000000E-01      0.00000000E+00      0.32500000E+00
      0.10000000E+00      0.00000000E+00      0.32500000E+00
      0.15000000E+00      0.00000000E+00      0.32500000E+00
      0.20000000E+00      0.00000000E+00      0.32500000E+00
      0.25000000E+00      0.00000000E+00      0.32500000E+00
      0.30000000E+00      0.00000000E+00      0.32500000E+00
      0.35000000E+00      0.00000000E+00      0.32500000E+00
      0.40000000E+00      0.00000000E+00      0.32500000E+00
      0.50000000E-01      0.00000000E+00      0.27500000E+00
      0.10000000E+00      0.00000000E+00      0.27500000E+00
      0.15000000E+00      0.00000000E+00      0.27500000E+00
      0.20000000E+00      0.00000000E+00      0.27500000E+00
      0.25000000E+00      0.00000000E+00      0.27500000E+00
      0.30000000E+00      0.00000000E+00      0.27500000E+00
      0.35000000E+00      0.00000000E+00      0.27500000E+00
      0.40000000E+00      0.00000000E+00      0.27500000E+00
      0.50000000E-01      0.00000000E+00      0.22500000E+00
      0.10000000E+00      0.00000000E+00      0.22500000E+00
      0.15000000E+00      0.00000000E+00      0.22500000E+00
      0.20000000E+00      0.00000000E+00      0.22500000E+00
      0.25000000E+00      0.00000000E+00      0.22500000E+00
      0.30000000E+00      0.00000000E+00      0.22500000E+00
      0.35000000E+00      0.00000000E+00      0.22500000E+00
      0.40000000E+00      0.00000000E+00      0.22500000E+00
      0.50000000E-01      0.00000000E+00      0.17500000E+00
      0.10000000E+00      0.00000000E+00      0.17500000E+00
      0.15000000E+00      0.00000000E+00      0.17500000E+00
      0.20000000E+00      0.00000000E+00      0.17500000E+00
      0.50000000E-01      0.00000000E+00      0.12500000E+00
      0.10000000E+00      0.00000000E+00      0.12500000E+00
      0.15000000E+00      0.00000000E+00      0.12500000E+00
      0.20000000E+00      0.00000000E+00      0.12500000E+00
      0.25000000E+00      0.00000000E+00      0.12500000E+00
      0.30000000E+00      0.00000000E+00      0.12500000E+00
      0.35000000E+00      0.00000000E+00      0.12500000E+00
      0.40000000E+00      0.00000000E+00      0.12500000E+00
      0.50000000E-01      0.00000000E+00      0.75000000E-01
      0.10000000E+00      0.00000000E+00      0.75000000E-01
      0.15000000E+00      0.00000000E+00      0.75000000E-01
      0.20000000E+00      0.00000000E+00      0.75000000E-01
      0.25000000E+00      0.00000000E+00      0.75000000E-01
      0.30000000E+00      0.00000000E+00      0.75000000E-01
      0.35000000E+00      0.00000000E+00      0.75000000E-01
      0.40000000E+00      0.00000000E+00      0.75000000E-01
      0.00000000E+00      0.00000000E+00      0.00000000E+00
      0.45000000E+00      0.00000000E+00      0.00000000E+00
      0.00000000E+00      0.00000000E+00      0.50000000E+00
      0.45000000E+00      0.00000000E+00      0.50000000E+00
      0.00000000E+00     -0.30000000E-01      0.00000000E+00
      0.45000000E+00     -0.30000000E-01      0.00000000E+00
      0.00000000E+00     -0.30000000E-01      0.50000000E+00
      0.45000000E+00     -0.30000000E-01      0.50000000E+00
      0.00000000E+00     -0.30000000E-01      0.10000000E-01
      0.00000000E+00     -0.30000000E-01      0.20000000E-01
      0.00000000E+00     -0.30000000E-01      0.30000000E-01
      0.00000000E+00     -0.30000000E-01      0.40000000E-01
      0.00000000E+00     -0.30000000E-01      0.50000000E-01
      0.00000000E+00     -0.30000000E-01      0.60000000E-01
      0.00000000E+00     -0.30000000E-01      0.70000000E-01
      0.00000000E+00     -0.30000000E-01      0.80000000E-01
      0.00000000E+00     -0.30000000E-01      0.90000000E-01
      0.00000000E+00     -0.30000000E-01      0.10000000E+00
      0.00000000E+00     -0.30000000E-01      0.11000000E+00
      0.00000000E+00     -0.30000000E-01      0.12000000E+00
      0.00000000E+00     -0.30000000E-01      0.13000000E+00
      0.00000000E+00     -0.30000000E-01      0.14000000E+00
      0.00000000E+00     -0.30000000E-01      0.15000000E+00
      0.00000000E+00     -0.30000000E-01      0.16000000E+00
      0.00000000E+00     -0.30000000E-01      0.17000000E+00
      0.00000000E+00     -0.30000000E-01      0.18000000E+00
      0.00000000E+00     -0.30000000E-01      0.19000000E+00
      0.00000000E+00     -0.30000000E-01      0.20000000E+00
      0.00000000E+00     -0.30000000E-01      0.21000000E+00
      0.00000000E+00     -0.30000000E-01      0.22000000E+00
      0.00000000E+00     -0.30000000E-01      0.23000000E+00
      0.00000000E+00     -0.30000000E-01      0.24000000E+00
      0.00000000E+00     -0.30000000E-01      0.25000000E+00
      0.00000000E+00     -0.30000000E-01      0.26000000E+00
      0.00000000E+00     -0.30000000E-01      0.27000000E+00
      0.00000000E+00     -0.30000000E-01      0.28000000E+00
      0.00000000E+00     -0.30000000E-01      0.29000000E+00
      0.00000000E+00     -0.30000000E-01      0.30000000E+00
      0.00000000E+00     -0.30000000E-01      0.31000000E+00
      0.00000000E+00     -0.30000000E-01      0.32000000E+00
      0.00000000E+00     -0.30000000E-01      0.33000000E+00
      0.00000000E+00     -0.30000000E-01      0.34000000E+00
      0.00000000E+00     -0.30000000E-01      0.35000000E+00
      0.00000000E+00     -0.30000000E-01      0.36000000E+00
      0.00000000E+00     -0.30000000E-01      0.37000000E+00
      0.00000000E+00     -0.30000000E-01      0.38000000E+00
      0.00000000E+00     -0.30000000E-01      0.39000000E+00
      0.00000000E+00     -0.30000000E-01      0.40000000E+00
      0.00000000E+00     -0.30000000E-01      0.41000000E+00
      0.00000000E+00     -0.30000000E-01      0.42000000E+00
      0.00000000E+00     -0.30000000E-01      0.43000000E+00
      0.00000000E+00     -0.30000000E-01      0.44000000E+00
      0.00000000E+00     -0.30000000E-01      0.45000000E+00
      0.00000000E+00     -0.30000000E-01      0.46000000E+00
      0.00000000E+00     -0.30000000E-01      0.47000000E+00
      0.00000000E+00     -0.30000000E-01      0.48000000E+00
      0.00000000E+00     -0.30000000E-01      0.49000000E+00
      0.10000000E-01     -0.30000000E-01      0.50000000E+00
      0.20000000E-01     -0.30000000E-01      0.50000000E+00
      0.30000000E-01     -0.30000000E-01      0.50000000E+00
      0.40000000E-01     -0.30000000E-01      0.50000000E+00
      0.50000000E-01     -0.30000000E-01      0.50000000E+00
      0.60000000E-01     -0.30000000E-01      0.50000000E+00
      0.70000000E-01     -0.30000000E-01      0.50000000E+00
      0.80000000E-01     -0.30000000E-01      0.50000000E+00
      0.90000000E-01     -0.30000000E-01      0.50000000E+00
      0.10000000E+00     -0.30000000E-01      0.50000000E+00
      0.11000000E+00     -0.30000000E-01      0.50000000E+00
      0.12000000E+00     -0.30000000E-01      0.50000000E+00
      0.13000000E+00     -0.30000000E-01      0.50000000E+00
      0.14000000E+00     -0.30000000E-01      0.50000000E+00
      0.15000000E+00     -0.30000000E-01      0.50000000E+00
      0.16000000E+00     -0.30000000E-01      0.50000000E+00
      0.17000000E+00     -0.30000000E-01      0.50000000E+00
      0.18000000E+00     -0.30000000E-01      0.50000000E+00
      0.19000000E+00     -0.30000000E-01      0.50000000E+00
      0.20000000E+00     -0.30000000E-01      0.50000000E+00
      0.21000000E+00     -0.30000000E-01      0.50000000E+00
      0.22000000E+00     -0.30000000E-01      0.50000000E+00
      0.23000000E+00     -0.30000000E-01      0.50000000E+00
      0.24000000E+00     -0.30000000E-01      0.50000000E+00
      0.25000000E+00     -0.30000000E-01      0.50000000E+00
      0.26000000E+00     -0.30000000E-01      0.50000000E+00
      0.27000000E+00     -0.30000000E-01      0.50000000E+00
      0.28000000E+00     -0.30000000E-01      0.50000000E+00
      0.29000000E+00     -0.30000000E-01      0.50000000E+00
      0.30000000E+00     -0.30000000E-01      0.50000000E+00
      0.31000000E+00     -0.30000000E-01      0.50000000E+00
      0.32000000E+00     -0.30000000E-01      0.50000000E+00
      0.33000000E+00     -0.30000000E-01      0.50000000E+00
      0.34000000E+00     -0.30000000E-01      0.50000000E+00
      0.35000000E+00     -0.30000000E-01      0.50000000E+00
      0.36000000E+00     -0.30000000E-01      0.50000000E+00
      0.37000000E+00     -0.30000000E-01      0.50000000E+00
[...]
POINT_DATA      8652
CELL_DATA     32557
SCALARS Resistivity(ohm.m) double 1
LOOKUP_TABLE default
            10.39823            10.65209            10.40436            10.58902            10.48027             9.76429            10.95604            10.66651            10.51676            10.43690            10.41030             9.67736             9.48584            10.56308            10.59584            10.44831            10.19001            10.93931            10.27169            11.01576            10.53046            10.27600            10.12521            10.43675            10.55293            10.22277            10.56179            10.59680            10.59381            10.10193            10.52253            10.13794            10.25762            10.68208            10.30065            10.78302            10.42467            10.66078            10.28556            10.62338            10.49343            11.01449            10.96095            10.46845            11.05858            10.63297            10.69980            10.79930            10.54985            11.15816            10.15975            10.64327            10.16420            10.64370            10.50869            10.44413            10.19075            10.42020            10.81072            10.26743            10.49512            10.07665            10.52268            10.96680            11.02339            10.56783            10.95860            10.86169             9.68415            10.32602            10.51554            10.18040            10.62517            10.21975            10.90879            10.27542            11.26676            11.15954            10.07170            10.08273            10.50947            10.63186            10.62023            10.33915            10.51926            10.29680            10.60480            10.90941            10.57932             9.92523            10.32383            10.25626            10.67877            10.84909            10.49723            10.31452            10.74978            10.81287            10.41473            10.33746            10.45043            10.43194            10.61737            10.59457            10.25093            10.64377            10.18347            11.07308             9.51724            10.07891            11.11021            11.06159            10.47569            11.05178            10.51052            10.30022            10.27302            10.59728            10.42489            10.17137            10.58340            10.16528            11.00432            10.33455            10.88095            10.52545            10.57859            10.81200            10.38724            10.58417            10.48855            10.56647            10.14462            10.14809             9.71945            10.62705            10.49737            10.94292            10.27446            10.32206            10.58581            10.24122            10.51298            10.65056            10.16624            11.14450            10.25703            10.16516            10.50895            10.24360            10.72172            10.07793             9.94863            11.19421            10.63369            10.20967            10.69870            10.26358            10.73382            10.78538            10.26599            10.88929            10.16953            10.89951            10.93255            10.94799            10.89156            10.57386            10.19479            10.45004            10.30500            10.28100            10.83847            10.20397            10.25265            10.07040            10.02349            10.61169            10.65362            10.67405            10.74765            10.86312            10.46911            10.51872            10.65652            10.92105            10.68216            10.64874            10.59645            10.99084            10.36847            10.27487            10.18962            10.06092            10.23867            10.89353            10.36781            10.96109            10.74787            10.97043            10.63743            10.83376            10.70520            11.08092            10.24021            10.67984            10.33622            10.25288            10.64200            10.57586            10.43570            10.51343            10.60752            10.63002            10.18607            10.56029            10.47731            10.48143            10.38250            10.60898            10.73322            10.25573            10.21935            11.05711            10.45151            10.20737            10.64448            10.60441            10.89896            10.83613            10.51053            10.71006            10.40725            10.55099            10.45800            10.09267            10.53452            10.39772            10.44315            10.33830            10.78008            11.02241            10.49358            10.46650            10.74971             9.85213            10.63806            10.61274            10.51378            10.58296            10.51846            10.33658            10.57352             9.92745            10.55190            10.28211            10.61761            10.00927             9.95544            11.06140            10.38928            11.08389            10.24628            10.39985            10.18935            10.51399            10.49112            10.09256            10.43885            10.68411            10.69979            10.35787            10.28449            10.25267            10.70524            10.17624            10.06006            10.28960            10.57790            10.37056             9.73738            10.50418            10.35619            10.84345            10.07536            10.39347            10.38022            10.58704            10.60352            10.56787            10.56437            10.73013            10.47258            10.28330            10.50628            10.43239            10.43643            10.41668            10.63266            10.43400            10.50135            10.71198            10.98903            10.37794            10.22727            10.47709            10.26285            10.42730            10.43432             9.99101            10.07859            10.74335            10.27115            10.63848            10.35830            10.72733            10.56070            10.98201            11.33456            10.51968            10.68234            10.59308            10.32934            10.20921            10.61302            10.50170            10.82570            10.65269            10.36777            10.59764            10.26466            10.52453            10.57103            10.14312            10.81942            10.44357            10.22198            10.42270            10.54605             9.84940            10.24267            11.02050            11.15919            10.97114            10.14586            10.58172            10.47685            10.51213            10.88563            10.56293            10.56127            10.71706            10.56178            10.19432            11.07184            10.81521            10.41298            10.19307            10.70177            10.22709            10.90944            10.23781            10.43193            10.10897            10.64102            10.48278            10.88197            10.34639             9.89609            10.50125            10.89726            10.08737            10.47299            10.48907            10.71265            10.00797            10.55417            10.56717            10.50886            10.68146            10.21096            11.08223            10.98289            10.20393            10.00937            10.73914            10.68867            10.36427            10.83364            10.61105             9.59943             9.94786            10.40075            11.30827            10.54834            10.19090            10.87401            10.94665            10.55374            10.38682            10.78467            10.38384            10.62576            11.12942            10.29771            10.73317            10.40787            10.53489            10.23997            10.64194            10.76506            10.20850            10.17134            10.68161            10.16590            10.52506            10.73278            10.82905            10.02592            10.93613            10.46216            10.76104            10.14591            10.28988            10.55750            11.00713            10.71958            10.62547            10.64110             9.45304            10.59682            10.33695            11.17609            10.13512            10.56729            11.06599            11.32522             9.69155            10.51316            10.96190            11.07269            10.20270             9.96715            10.87046            10.96447            11.24661            10.26076            10.71522            10.66691            10.07353            10.45462            10.70993            10.00722            10.77344            10.52545            10.31472            10.60375            11.00512            10.91960            10.74288            10.52923            10.10894            10.48522            10.22171            11.19735            10.57244            10.99758            10.54903            10.71170            10.35994            10.43784            10.86883            11.05121            10.46480            10.74012            10.23091            10.17324             9.84312            10.91379            10.65445            11.04028            10.62049            10.50528             9.85344            10.18844            10.68367            10.77393            10.65834            10.39303            10.46137            10.50148            10.98705            10.51761            10.61719            10.09129            10.36624            10.55346            10.65671             9.74016            11.03420            10.55785            10.20712            11.12233            10.64287            10.57760            10.27637            10.96556            10.61472            10.62427            10.93063            10.40334             9.88191            10.46365            10.78962            10.55698            10.97098            10.38517            10.49481            10.53737            11.03591             9.97384            10.37552            10.56747            10.59955            11.03243            10.62415            10.33081            11.25390            10.63914            10.87981            10.41457            10.51231            10.24554            10.62809            10.53764            10.10771            10.51887            10.08975            10.18526            10.34152            10.25107            10.70516            10.49458            10.40760            10.58788            10.53004            10.54543            10.11216            10.64313            10.05730            10.49920            10.59194            10.40155            10.23469            10.38988            10.19887            11.03489            10.55202            10.66728            10.16814            10.89566            10.56168            10.61425            10.46021            10.48145            10.94563            10.57208            10.68324            10.50453            10.70605            10.46575            10.63760            10.41038            10.58498            10.25436            10.69755            10.08520            10.69656            10.25073            10.54404            10.72259            10.93506            10.24831            10.22600            10.39102            10.42858            10.25472            11.05398            10.62799            10.60705            10.76893            10.38428             9.79602            10.61910            10.44521            10.68084            10.25133            10.64249            10.57377            10.69187            10.23560            10.12722            10.57796            10.44162            10.25783            10.49263            10.41829            10.61077            10.45573            10.20205            10.51917            10.09954            10.45494            10.69854            11.24391            10.91656            10.36846            10.51335            10.63865            10.76462            10.35170            10.55824            10.20353            10.68726             9.75966            10.36201            10.67288            11.05462            10.53463            11.20883            10.90375             9.98742            11.20720            10.59281            10.81543            10.71092            10.62501            11.07798            10.80831            10.36878            10.54764            10.45134            10.84157            10.40395            10.66153            10.12649            10.37242             9.72664            10.97583            10.45925            10.87781            10.82217            10.25407            10.41677            10.03326            10.41179            10.18180            10.94219            10.00660            10.64036            10.14825            10.30956            10.41824            10.81973            10.70701            10.47406            10.13767            10.96742            10.52131            10.54304            10.42146            10.16614            10.58685            10.65051            10.68722            10.26932            10.45162            10.92784            10.91225            10.90935            10.97959            10.84916            10.30768            10.88851            10.69881            10.61234            10.60876            10.35541            10.13110            10.96919            10.43329            10.15941            10.43851            10.87862            10.16830            10.91203            10.61470            10.69895            10.75631            10.59402            10.49334            10.34683            11.15449            10.38073            10.66795            11.11088            10.19258            10.04202            10.26826            10.71002            10.89454            10.07478            10.52237            10.11671            10.59828            10.58343            10.92612            10.69716            10.15654            10.71031             9.83248            10.28933            10.60254            10.68628            10.74614            10.70987            11.08471            10.60987            10.58357            10.90241            11.04347            10.76682            10.44994            10.29200            10.72040            10.40295            10.90784            10.24646            10.57817            11.18596            10.64113            10.71444             9.64117            10.51711            10.40765            10.82127            10.24106            10.57920            10.62332            10.37126            10.49365            10.50642            10.20660            10.66498            10.58649            10.21659            10.09443            10.73027            10.73678            10.11031            10.64894            10.28533            10.42983            10.49414            10.58997            11.25300            10.32587            10.44530            10.78658            10.85048            10.17519            10.17703            10.50711            10.23451            10.71415            10.56370            10.77227            10.71979            10.62715            10.61566            10.49628            10.55001            10.49416            10.36760            10.88413            10.39656            10.41218            10.83833            10.08991            10.56804            11.02543            10.68670            10.58726            11.18529            10.08732            10.09259            10.64945            10.21397            10.26127            10.52892            10.75480            11.33841            10.04900            10.51166            10.93115            10.55545            10.72603            10.35063            10.50520            10.08943            10.55297            10.11197            10.04714            10.57722             9.45870            10.74682            10.70366            10.64403            10.71022            10.60505            10.95804             9.85450            10.98307            10.62209            10.23325            10.84435            10.49947            10.00730            10.80740            10.43448            10.63054            10.60198            10.35249            10.46256            11.02670            10.18994            10.68252            10.80563            11.08827            10.57481            10.13377            10.20755             9.97687            10.48140            10.85389            10.99546            10.59026            10.88404            10.67137            10.72404            10.55355            10.65266            10.63793            10.96735            10.65161            10.91425            10.53417            10.52627            10.49980            10.38180            10.36948            10.97583            10.60641            10.06479            10.45352            10.54341            10.92071            10.15611            10.86864            11.05251            11.24326            10.60842            10.30408            10.18497            10.50729            10.54067            10.74695            10.47955            10.88748            10.69723            10.62268            10.25460            10.61990            10.65552            10.66953            10.62097            10.27661            10.88262            10.49038            10.61053             9.94550            10.48613            10.57715            10.47736            10.37381            11.09368            10.97976            10.22181            10.70981            10.20949            10.34891            11.14412            10.27031            10.68376            10.89559            10.38771            10.53475            10.84059            10.36454            10.64962            10.12130            10.37623            10.51521            10.28679            10.55034            10.57043            10.06320            10.25306            10.39927            10.44604            10.32636            10.68812            10.29735            10.87659            10.74691            10.97369            10.57107            10.59081             9.65108            10.23600             9.54026            10.83585            10.30824            10.72535            10.20777            10.95897            10.56845            10.65754            10.54709            10.34668            10.19794            11.06087            10.32836            10.90880            10.68113            10.35403            10.10915            10.88266            10.52914            11.02738            10.49958            10.25739            10.28920            10.10352            10.17300            10.64432            10.63824            10.34146            10.15155            11.05735            10.61404            10.07990            10.53858            10.86031            11.08523            10.45811            10.14368            10.44638            10.59890            10.87724            10.42295            10.53248            10.48534             9.98737            10.18245            10.97471            10.24005            10.20059            10.51794            10.51783            10.94919            10.12459            10.11069            10.30366            10.50474            10.55174            10.63979            10.11137            10.90210            10.09712            10.18522            10.92084            10.55472            10.37438            10.29115  