# vtk DataFile Version 3.0
Output from R3t
ASCII
DATASET UNSTRUCTURED_GRID
POINTS       8347 double
      0.50000000E-01     -0.50000000E-02      0.48500000E+00
      0.10000000E+00     -0.50000000E-02      0.48500000E+00
      0.15000000E+00     -0.50000000E-02      0.48500000E+00
      0.20000000E+00     -0.50000000E-02      0.48500000E+00
      0.25000000E+00     -0.50000000E-02      0.48500000E+00
      0.30000000E+00     -0.50000000E-02      0.48500000E+00
      0.35000000E+00     -0.50000000E-02      0.48500000E+00
      0.40000000E+00     -0.50000000E-02      0.48500000E+00
      0.50000000E-01      0.00000000E+00      0.42500000E+00
      0.10000000E+00      0.00000000E+00      0.42500000E+00
      0.15000000E+00      0.00000000E+00      0.42500000E+00
      0.20000000E+00      0.00000000E+00      0.42500000E+00
      0.25000000E+00      0.00000000E+00      0.42500000E+00
      0.30000000E+00      0.00000000E+00      0.42500000E+00
      0.35000000E+00      0.00000000E+00      0.42500000E+00
      0.40000000E+00      0.00000000E+00      0.42500000E+00
      0.50000000E-01      0.00000000E+00      0.37500000E+00
      0.10000000E+00      0.00000000E+00      0.37500000E+00
      0.15000000E+00      0.00000000E+00      0.37500000E+00
      0.20000000E+00      0.00000000E+00      0.37500000E+00
      0.25000000E+00      0.00000000E+00      0.37500000E+00
      0.30000000E+00      0.00000000E+00      0.37500000E+00
      0.35000000E+00      0.00000000E+00      0.37500000E+00
      0.40000000E+00      0.00000000E+00      0.37500000E+00
      0.50000000E-01      0.00000000E+00      0.32500000E+00
      0.10000000E+00      0.00000000E+00      0.32500000E+00
      0.15000000E+00      0.00000000E+00      0.32500000E+00
      0.20000000E+00      0.00000000E+00      0.32500000E+00
      0.25000000E+00      0.00000000E+00      0.32500000E+00
      0.30000000E+00      0.00000000E+00      0.32500000E+00
      0.35000000E+00      0.00000000E+00      0.32500000E+00
      0.40000000E+00      0.00000000E+00      0.32500000E+00
      0.50000000E-01      0.00000000E+00      0.27500000E+00
      0.10000000E+00      0.00000000E+00      0.27500000E+00
      0.15000000E+00      0.00000000E+00      0.27500000E+00
      0.20000000E+00      0.00000000E+00      0.27500000E+00
      0.25000000E+00      0.00000000E+00      0.27500000E+00
      0.30000000E+00      0.00000000E+00      0.27500000E+00
      0.35000000E+00      0.00000000E+00      0.27500000E+00
      0.40000000E+00      0.00000000E+00      0.27500000E+00
      0.50000000E-01      0.00000000E+00      0.22500000E+00
      0.10000000E+00      0.00000000E+00      0.22500000E+00
      0.15000000E+00      0.00000000E+00      0.22500000E+00
      0.20000000E+00      0.00000000E+00      0.22500000E+00
      0.25000000E+00      0.00000000E+00      0.22500000E+00
      0.30000000E+00      0.00000000E+00      0.22500000E+00
      0.35000000E+00      0.00000000E+00      0.22500000E+00
      0.40000000E+00      0.00000000E+00      0.22500000E+00
      0.50000000E-01      0.00000000E+00      0.17500000E+00
      0.10000000E+00      0.00000000E+00      0.17500000E+00
      0.15000000E+00      0.00000000E+00      0.17500000E+00
      0.20000000E+00      0.00000000E+00      0.17500000E+00
      0.50000000E-01      0.00000000E+00      0.12500000E+00
      0.10000000E+00      0.00000000E+00      0.12500000E+00
      0.15000000E+00      0.00000000E+00      0.12500000E+00
      0.20000000E+00      0.00000000E+00      0.12500000E+00
      0.25000000E+00      0.00000000E+00      0.12500000E+00
      0.30000000E+00      0.00000000E+00      0.12500000E+00
      0.35000000E+00      0.00000000E+00      0.12500000E+00
      0.40000000E+00      0.00000000E+00      0.12500000E+00
      0.50000000E-01      0.00000000E+00      0.75000000E-01
      0.10000000E+00      0.00000000E+00      0.75000000E-01
      0.15000000E+00      0.00000000E+00      0.75000000E-01
      0.20000000E+00      0.00000000E+00      0.75000000E-01
      0.25000000E+00      0.00000000E+00      0.75000000E-01
      0.30000000E+00      0.00000000E+00      0.75000000E-01
      0.35000000E+00      0.00000000E+00      0.75000000E-01
      0.40000000E+00      0.00000000E+00      0.75000000E-01
      0.00000000E+00      0.00000000E+00      0.00000000E+00
      0.45000000E+00      0.00000000E+00      0.00000000E+00
      0.00000000E+00     -0.30000000E-01      0.00000000E+00
      0.45000000E+00     -0.30000000E-01      0.00000000E+00
      0.00000000E+00     -0.30000000E-01      0.10000000E-01
      0.00000000E+00     -0.30000000E-01      0.20000000E-01
      0.00000000E+00     -0.30000000E-01      0.30000000E-01
      0.00000000E+00     -0.30000000E-01      0.40000000E-01
      0.00000000E+00     -0.30000000E-01      0.50000000E-01
      0.00000000E+00     -0.30000000E-01      0.60000000E-01
      0.00000000E+00     -0.30000000E-01      0.70000000E-01
      0.00000000E+00     -0.30000000E-01      0.80000000E-01
      0.00000000E+00     -0.30000000E-01      0.90000000E-01
      0.00000000E+00     -0.30000000E-01      0.10000000E+00
      0.00000000E+00     -0.30000000E-01      0.11000000E+00
      0.00000000E+00     -0.30000000E-01      0.12000000E+00
      0.00000000E+00     -0.30000000E-01      0.13000000E+00
      0.00000000E+00     -0.30000000E-01      0.14000000E+00
      0.00000000E+00     -0.30000000E-01      0.15000000E+00
      0.00000000E+00     -0.30000000E-01      0.16000000E+00
      0.00000000E+00     -0.30000000E-01      0.17000000E+00
      0.00000000E+00     -0.30000000E-01      0.18000000E+00
      0.00000000E+00     -0.30000000E-01      0.19000000E+00
      0.00000000E+00     -0.30000000E-01      0.20000000E+00
      0.00000000E+00     -0.30000000E-01      0.21000000E+00
      0.00000000E+00     -0.30000000E-01      0.22000000E+00
      0.00000000E+00     -0.30000000E-01      0.23000000E+00
      0.00000000E+00     -0.30000000E-01      0.24000000E+00
      0.00000000E+00     -0.30000000E-01      0.25000000E+00
      0.00000000E+00     -0.30000000E-01      0.26000000E+00
      0.00000000E+00     -0.30000000E-01      0.27000000E+00
      0.00000000E+00     -0.30000000E-01      0.28000000E+00
      0.00000000E+00     -0.30000000E-01      0.29000000E+00
      0.00000000E+00     -0.30000000E-01      0.30000000E+00
      0.00000000E+00     -0.30000000E-01      0.31000000E+00
      0.00000000E+00     -0.30000000E-01      0.32000000E+00
      0.00000000E+00     -0.30000000E-01      0.33000000E+00
      0.00000000E+00     -0.30000000E-01      0.34000000E+00
      0.00000000E+00     -0.30000000E-01      0.35000000E+00
      0.00000000E+00     -0.30000000E-01      0.36000000E+00
      0.00000000E+00     -0.30000000E-01      0.37000000E+00
      0.00000000E+00     -0.30000000E-01      0.38000000E+00
      0.00000000E+00     -0.30000000E-01      0.39000000E+00
      0.00000000E+00     -0.30000000E-01      0.40000000E+00
      0.00000000E+00     -0.30000000E-01      0.41000000E+00
      0.00000000E+00     -0.30000000E-01      0.42000000E+00
      0.00000000E+00     -0.30000000E-01      0.43000000E+00
      0.00000000E+00     -0.30000000E-01      0.44000000E+00
      0.00000000E+00     -0.30000000E-01      0.45000000E+00
      0.00000000E+00     -0.30000000E-01      0.46000000E+00
      0.00000000E+00     -0.30000000E-01      0.47000000E+00
      0.00000000E+00     -0.30000000E-01      0.48000000E+00
      0.00000000E+00     -0.30000000E-01      0.49000000E+00
      0.45000000E+00     -0.30000000E-01      0.49000000E+00
      0.45000000E+00     -0.30000000E-01      0.48000000E+00
      0.45000000E+00     -0.30000000E-01      0.47000000E+00
      0.45000000E+00     -0.30000000E-01      0.46000000E+00
      0.45000000E+00     -0.30000000E-01      0.45000000E+00
      0.45000000E+00     -0.30000000E-01      0.44000000E+00
      0.45000000E+00     -0.30000000E-01      0.43000000E+00
      0.45000000E+00     -0.30000000E-01      0.42000000E+00
      0.45000000E+00     -0.30000000E-01      0.41000000E+00
      0.45000000E+00     -0.30000000E-01      0.40000000E+00
      0.45000000E+00     -0.30000000E-01      0.39000000E+00
      0.45000000E+00     -0.30000000E-01      0.38000000E+00
      0.45000000E+00     -0.30000000E-01      0.37000000E+00
      0.45000000E+00     -0.30000000E-01      0.36000000E+00
      0.45000000E+00     -0.30000000E-01      0.35000000E+00
      0.45000000E+00     -0.30000000E-01      0.34000000E+00
      0.45000000E+00     -0.30000000E-01      0.33000000E+00
      0.45000000E+00     -0.30000000E-01      0.32000000E+00
      0.45000000E+00     -0.30000000E-01      0.31000000E+00
      0.45000000E+00     -0.30000000E-01      0.30000000E+00
      0.45000000E+00     -0.30000000E-01      0.29000000E+00
      0.45000000E+00     -0.30000000E-01      0.28000000E+00
      0.45000000E+00     -0.30000000E-01      0.27000000E+00
      0.45000000E+00     -0.30000000E-01      0.26000000E+00
      0.45000000E+00     -0.30000000E-01      0.25000000E+00
      0.45000000E+00     -0.30000000E-01      0.24000000E+00
      0.45000000E+00     -0.30000000E-01      0.23000000E+00
      0.45000000E+00     -0.30000000E-01      0.22000000E+00
      0.45000000E+00     -0.30000000E-01      0.21000000E+00
      0.45000000E+00     -0.30000000E-01      0.20000000E+00
      0.45000000E+00     -0.30000000E-01      0.19000000E+00
      0.45000000E+00     -0.30000000E-01      0.18000000E+00
      0.45000000E+00     -0.30000000E-01      0.17000000E+00
      0.45000000E+00     -0.30000000E-01      0.16000000E+00
      0.45000000E+00     -0.30000000E-01      0.15000000E+00
      0.45000000E+00     -0.30000000E-01      0.14000000E+00
      0.45000000E+00     -0.30000000E-01      0.13000000E+00
      0.45000000E+00     -0.30000000E-01      0.12000000E+00
      0.45000000E+00     -0.30000000E-01      0.11000000E+00
      0.45000000E+00     -0.30000000E-01      0.10000000E+00
      0.45000000E+00     -0.30000000E-01      0.90000000E-01
[...]
POINT_DATA      8347
CELL_DATA     31337
SCALARS Resistivity(ohm.m) double 1
LOOKUP_TABLE default
            10.83371            11.20450            10.84306            11.19525            11.11294            10.14380            11.52743            11.23874            11.15773            10.61401            10.56895             9.90970            11.25836            11.18175            10.89635            10.72801            11.61458            10.81803            11.67601            11.11216            10.78290            10.65506            10.63950            10.99651            10.86074            11.10544            11.23459            11.20447            10.57701            11.16013            10.68474            10.74980            11.20916            10.80593            11.34334            10.72785            11.30516            10.74762            11.22657            11.11588            11.67595            11.63211            11.17171            11.73787            11.27186            11.28295            11.46682            11.27373            11.86148            10.40058            11.29183            10.43099            11.24268            11.06946            11.03396            10.47248            10.59929            11.47633            10.80096            11.11676            10.54266            11.15990            11.50506            11.73878            11.14112            11.53398            11.50720            10.03369            10.82401            11.13339            10.70155            11.18900            10.59524            11.48074            10.71686            12.03041            11.92931            10.57761            10.23155            11.07595            11.19018            11.14071            10.95925            11.15589            10.73448            10.84227            11.48127            11.14834            10.11310            10.79617            10.62398            11.29091            11.42988            11.04874            10.69645            11.45710            11.42092            10.84689            10.49865            10.62256            10.81094            11.27018            11.16213            10.79605            11.20243            10.79329            11.63941            10.28136            11.83567            11.58445            10.99057            11.56587            11.06988            10.91195            10.76799            11.20568            10.85531            10.70235            11.19888            10.78049            11.60198            10.49117            11.53249            11.14019            11.21293            11.21552            10.88130            11.25020            11.03649            11.26576            10.72909            10.59751            11.28567            11.07892            11.48525            10.89852            10.73692            11.27556            10.79275            11.08177            11.34278            10.70145            11.87638            10.73388            10.34202            11.17807            10.73551            11.20691            10.58518            10.31767            11.95133            11.23397            10.73515            11.36934            10.41937            11.41230            11.45368            10.85927            11.57713            10.36494            11.45961            11.46973            11.46409            11.47760            11.00745            10.53331            10.70702            10.69204            10.44314            11.51121            10.58312            10.40901            10.63982            10.57771            11.35394            11.19677            11.23403            11.31580            11.46892            11.08820            11.15436            11.35600            11.50286            11.09542            11.19483            11.20851            11.55212            10.84916            10.74753            10.54761            10.60410            10.66086            11.47747            10.88448            11.50412            11.34416            11.64513            11.07310            11.37639            11.30611            11.59682            10.62889            11.37373            10.85043            10.80663            11.15677            11.27058            11.06272            11.24854            11.23818            11.14747            10.66007            11.21113            10.98777            11.07713            10.89581            11.25532            11.42686            10.41174            10.70803            11.76838            10.94646            10.57763            11.30619            11.23466            11.37968            11.50323            11.02306            11.40477            10.86715            11.07710            10.84930            10.64091            11.16112            10.91579            11.06019            10.76285            11.46329            11.69305            11.16025            10.82290            11.21285            10.14498            11.21844            11.26563            11.08302            11.24250            11.07447            10.86826            11.16247            10.26743            10.75484            10.80179            11.27223            10.38083            11.65393            10.61756            11.79651            10.85972            10.96836            10.68780            11.25370            11.04486            10.26875            10.73339            11.24699            11.07596            10.77071            10.74751            10.41095            11.18910            10.55699            10.71011            11.16988            10.83193            10.03535            11.04854            10.90581            11.45641            10.55727            10.79694            10.83163            11.17096            11.19735            11.17780            11.20181            11.24831            11.12991            10.76931            11.05907            10.59607            10.61473            10.96407            11.28883            11.05056            11.14813            11.19377            11.70047            10.90844            10.76927            10.85904            10.76858            10.78376            11.04520            10.58433            11.44716            10.84624            11.23817            10.84468            11.28056            11.17223            11.56363            12.09581            11.15096            11.22944            11.12418            10.82921            10.71209            11.23884            11.05160            11.40956            11.29119            10.82116            11.23335            10.90698            11.17668            11.23477            10.62472            11.47531            11.07257            10.59960            10.98360            11.10655            10.06911            10.82485            11.53380            11.87936            11.51248            10.35841            11.22298            11.08180            11.10850            11.44013            11.35433            11.17772            11.32542            11.05216            10.64044            11.83407            11.41478            10.82731            10.67085            11.18179            10.71700            11.49182            10.76039            10.65801            11.26146            11.10057            11.34441            10.87274            10.06067            10.92983            11.45502            10.63036            11.13110            11.03910            11.34301            10.56527            11.09808            11.03979            11.07563            11.34174            10.70898            11.77332            11.69216            10.70521            10.55176            11.04619            11.35530            10.81908            11.46331            11.25649             9.97133            10.07747            10.55633            12.07991            11.02897            10.57810            11.43681            11.48846            11.13982            10.94921            11.27927            10.81428            11.19800            11.67507            10.45096            11.43880            10.59228            11.13689            10.71055            11.16951            11.22357            10.70650            10.71961            11.21061            10.70590            11.24382            11.21970            11.44832            10.57028            11.63005            10.77540            11.46266            10.74360            10.44235            11.19342            11.61204            11.24521            11.09955            11.23808            11.29171            10.84030            11.95774            10.59983            11.20135            11.76300            12.08206            11.15999            11.50154            11.60572            10.79788            10.09731            11.41794            11.64568            12.02964            10.76122            11.37117            11.35816            11.05025            11.32031            10.14987            11.37217            11.10243            10.73533            11.16340            11.54972            11.50058            11.18397            11.16580            10.65921            11.05543            10.52460            11.97290            11.20309            11.60381            11.17228            11.23961            10.52071            10.86319            11.51692            11.58191            11.20213            11.06758            10.75467            10.71836            10.18355            11.48982            11.25569            11.58988            11.21982            11.15624            10.18973            10.79628            11.26577            11.43610            11.25911            10.80238            11.15504            10.70709            11.78307            11.08840            11.27085            10.58737            10.99265            11.14698            11.27000             9.94692            11.74961            11.15303            10.81138            11.84653            11.27085            11.15404            10.76465            11.56953            11.23231            11.18132            11.47017            10.95040            10.10209            10.80904            11.16431            11.14300            11.51718            10.93686            11.05132            11.18930            11.54954            10.52820            11.03062            11.26217            10.82758            11.58108            11.18338            10.77072            11.99514            11.23470            11.43699            11.03646            10.70103            10.80606            11.29281            11.29436            10.64906            11.07961            10.63969            10.41649            10.52365            10.74842            11.25087            11.17981            10.97451            11.17234            11.21524            10.95543            10.48915            11.27621            10.60082            10.68287            11.28498            10.95529            10.75117            10.85146            10.55817            11.57259            10.75316            11.08757            10.70797            11.44712            11.21491            11.34756            11.01731            11.18376            11.65480            11.16046            11.10538            10.76192            11.29293            11.20851            11.27535            11.04998            11.18242            10.77956            11.24214            10.55941            11.39228            10.81671            11.18222            11.21048            11.73513            10.77400            10.71516            10.77617            10.62676            10.81359            11.80541            10.86657            11.22585            11.37950            10.93842            10.01364            11.21703            11.01992            11.20864            10.73639            11.27266            11.28465            11.21843            10.86054            10.66936            11.15073            10.90101            10.41347            11.17037            10.99779            11.24088            10.62527            10.68007            11.15283            10.60783            11.00139            11.24297            12.02028            11.73499            10.67220            11.10392            11.27561            11.40813            10.50867            11.18071            10.59737            11.21969            10.84024            11.23785            11.56698            11.22246            11.93871            11.47100            10.35084            11.96413            11.24562            11.51938            11.24056            10.87269            11.84149            11.48680            10.83881            11.09897            11.05288            11.42859            10.83384            11.31715            10.35115            10.80863            10.11096            11.78571            11.11392            11.42849            11.51056            10.85365            10.60737            10.60401            11.05217            10.62366            11.48788            10.54883            11.27585            10.75664            10.77084            10.97201            11.37920            11.23754            11.03674            11.57306            11.26271            11.17858            11.04882            10.69213            11.22291            11.30796            11.38203            10.82180            10.87513            11.46788            11.48765            11.40069            11.60980            11.41124            10.75355            11.48587            11.13983            11.23282            10.86598            10.80998            11.57574            11.05839            10.37205            10.96909            11.33701            10.74735            11.50040            11.28744            11.24228            11.44060            11.19728            11.14965            10.85034            11.88432            10.93474            11.22710            11.64653            10.64553            10.54814            10.68828            11.19381            11.44781            10.56098            11.12752            11.24453            11.18027            11.46258            11.24266            10.36843            11.35792            10.14114            10.73647            11.16322            11.25701            11.19919            11.19909            11.78871            10.83669            11.27188            11.47987            11.62695            11.38797            10.87940            10.45556            11.20776            10.91958            11.44668            10.81566            11.26146            11.91032            11.22841            11.24037            10.00048            11.18249            10.64507            11.51022            10.73652            10.79454            11.14521            10.71274            11.14184            11.12201            10.57217            11.23324            11.13794            10.62612            10.63686            11.33583            11.22772            10.57421            11.29512            10.48656            10.94573            11.11673            11.21457            12.01436            10.84055            10.75491            11.34955            11.48925            10.60672            10.76642            11.07645            10.51785            11.46585            11.19742            11.33334            11.24589            11.32262            11.14049            10.91676            11.20200            10.75852            10.86918            11.53530            10.96160            10.84209            11.50046            10.66929            11.20343            11.69605            11.32297            11.21869            11.93402            10.66490            10.69960            11.34750            10.74273            10.87846            11.14403            11.06937            12.10371            10.59258            11.05135            11.43755            11.02336            11.24913            10.81621            11.20582            10.59553            11.14386            10.69704            10.47669            11.00009            11.24514            11.32247            11.29282            11.32954            11.29755            11.46043            10.19680            11.53460            11.31700            10.75241            11.47105            10.75969            10.56511            11.36015            10.84472            11.19061            11.17945            10.77381            11.14132            11.70238            10.62750            11.23092            11.41078            11.81278            11.21694            10.67768            10.82020            11.13939            11.41969            11.49963            11.04953            11.46439            11.05518            11.25537            11.26609            10.90862            11.29659            11.57440            10.91166            11.49019            11.23024            11.06257            10.91493            10.87309            10.63648            11.63847            11.30453            10.63905            10.79990            11.26334            11.50802            10.68959            11.49806            11.77250            12.02778            11.03165            10.57366            10.39499            11.24670            11.11313            11.30613            10.98917            11.52898            11.17680            11.18896            10.41003            11.31463            10.90933            11.32081            11.23713            10.77578            11.46094            11.15702            11.24812            10.30534            11.08143            11.16337            11.18111            10.91880            11.68723            11.61446            10.61459            11.40238            10.73645            10.98689            11.84328            10.81516            11.24005            11.45215            10.98911            11.10957            11.41589            10.54645            11.24960            10.59117            10.76675            11.20580            10.91358            11.11442            11.18446            10.38543            10.40954            10.92641            10.83515            10.90017            11.35963            10.69677            11.45568            11.19941            11.55610            11.04252            11.21820             9.89498            10.75959             9.90451            11.24901            10.79799            11.27457            10.69804            11.54024            11.26555            10.92069            11.17565            10.84734            10.47247            11.73625            10.50411            11.48142            11.23685            10.66841            11.56737            11.16476            11.60228            11.05911            10.70524            10.44938            10.64572            10.79869            11.18900            11.29641            10.97785            10.69886            11.61105            11.24315            10.56358            11.12332            11.53305            11.80046            10.77221            10.60616            10.68560            11.19459            11.43197            11.04203            11.23471            11.04911            10.73564            11.66024            10.82252            10.73938            11.09000            11.15217            11.48697            10.66790            10.65850            10.90346            11.14646            11.14048            11.27625            10.65381            11.47592            10.69285            10.39579            11.66521            11.11834            10.52872            10.71160            11.16536            11.24280            11.21336            11.45244            10.85083            10.74233            11.21250            10.95013            11.15974            10.54176            10.64989            11.45888            11.08308            11.34384            10.91486            11.27296            11.28762            11.15029  