# vtk DataFile Version 3.0
Output from R3t
ASCII
DATASET UNSTRUCTURED_GRID
POINTS       8347 double
      0.50000000E-01     -0.50000000E-02      0.48500000E+00
      0.10000000E+00     -0.50000000E-02      0.48500000E+00
      0.15000000E+00     -0.50000000E-02      0.48500000E+00
      0.20000000E+00     -0.50000000E-02      0.48500000E+00
      0.25000000E+00     -0.50000000E-02      0.48500000E+00
      0.30000000E+00     -0.50000000E-02      0.48500000E+00
      0.35000000E+00     -0.50000000E-02      0.48500000E+00
      0.40000000E+00     -0.50000000E-02      0.48500000E+00
      0.50000000E-01      0.00000000E+00      0.42500000E+00
      0.10000000E+00      0.00000000E+00      0.42500000E+00
      0.15000000E+00      0.00000000E+00      0.42500000E+00
      0.20000000E+00      0.00000000E+00      0.42500000E+00
      0.25000000E+00      0.00000000E+00      0.42500000E+00
      0.30000000E+00      0.00000000E+00      0.42500000E+00
      0.35000000E+00      0.00000000E+00      0.42500000E+00
      0.40000000E+00      0.00000000E+00      0.42500000E+00
      0.50000000E-01      0.00000000E+00      0.37500000E+00
      0.10000000E+00      0.00000000E+00      0.37500000E+00
      0.15000000E+00      0.00000000E+00      0.37500000E+00
      0.20000000E+00      0.00000000E+00      0.37500000E+00
      0.25000000E+00      0.00000000E+00      0.37500000E+00
      0.30000000E+00      0.00000000E+00      0.37500000E+00
      0.35000000E+00      0.00000000E+00      0.37500000E+00
      0.40000000E+00      0.00000000E+00      0.37500000E+00
      0.50000000E-01      0.00000000E+00      0.32500000E+00
      0.10000000E+00      0.00000000E+00      0.32500000E+00
      0.15000000E+00      0.00000000E+00      0.32500000E+00
      0.20000000E+00      0.00000000E+00      0.32500000E+00
      0.25000000E+00      0.00000000E+00      0.32500000E+00
      0.30000000E+00      0.00000000E+00      0.32500000E+00
      0.35000000E+00      0.00000000E+00      0.32500000E+00
      0.40000000E+00      0.00000000E+00      0.32500000E+00
      0.50000000E-01      0.00000000E+00      0.27500000E+00
      0.10000000E+00      0.00000000E+00      0.27500000E+00
      0.15000000E+00      0.00000000E+00      0.27500000E+00
      0.20000000E+00      0.00000000E+00      0.27500000E+00
      0.25000000E+00      0.00000000E+00      0.27500000E+00
      0.30000000E+00      0.00000000E+00      0.27500000E+00
      0.35000000E+00      0.00000000E+00      0.27500000E+00
      0.40000000E+00      0.00000000E+00      0.27500000E+00
      0.50000000E-01      0.00000000E+00      0.22500000E+00
      0.10000000E+00      0.00000000E+00      0.22500000E+00
      0.15000000E+00      0.00000000E+00      0.22500000E+00
      0.20000000E+00      0.00000000E+00      0.22500000E+00
      0.25000000E+00      0.00000000E+00      0.22500000E+00
      0.30000000E+00      0.00000000E+00      0.22500000E+00
      0.35000000E+00      0.00000000E+00      0.22500000E+00
      0.40000000E+00      0.00000000E+00      0.22500000E+00
      0.50000000E-01      0.00000000E+00      0.17500000E+00
      0.10000000E+00      0.00000000E+00      0.17500000E+00
      0.15000000E+00      0.00000000E+00      0.17500000E+00
      0.20000000E+00      0.00000000E+00      0.17500000E+00
      0.50000000E-01      0.00000000E+00      0.12500000E+00
      0.10000000E+00      0.00000000E+00      0.12500000E+00
      0.15000000E+00      0.00000000E+00      0.12500000E+00
      0.20000000E+00      0.00000000E+00      0.12500000E+00
      0.25000000E+00      0.00000000E+00      0.12500000E+00
      0.30000000E+00      0.00000000E+00      0.12500000E+00
      0.35000000E+00      0.00000000E+00      0.12500000E+00
      0.40000000E+00      0.00000000E+00      0.12500000E+00
      0.50000000E-01      0.00000000E+00      0.75000000E-01
      0.10000000E+00      0.00000000E+00      0.75000000E-01
      0.15000000E+00      0.00000000E+00      0.75000000E-01
      0.20000000E+00      0.00000000E+00      0.75000000E-01
      0.25000000E+00      0.00000000E+00      0.75000000E-01
      0.30000000E+00      0.00000000E+00      0.75000000E-01
      0.35000000E+00      0.00000000E+00      0.75000000E-01
      0.40000000E+00      0.00000000E+00      0.75000000E-01
      0.00000000E+00      0.00000000E+00      0.00000000E+00
      0.45000000E+00      0.00000000E+00      0.00000000E+00
      0.00000000E+00     -0.30000000E-01      0.00000000E+00
      0.45000000E+00     -0.30000000E-01      0.00000000E+00
      0.00000000E+00     -0.30000000E-01      0.10000000E-01
      0.00000000E+00     -0.30000000E-01      0.20000000E-01
      0.00000000E+00     -0.30000000E-01      0.30000000E-01
      0.00000000E+00     -0.30000000E-01      0.40000000E-01
      0.00000000E+00     -0.30000000E-01      0.50000000E-01
      0.00000000E+00     -0.30000000E-01      0.60000000E-01
      0.00000000E+00     -0.30000000E-01      0.70000000E-01
      0.00000000E+00     -0.30000000E-01      0.80000000E-01
      0.00000000E+00     -0.30000000E-01      0.90000000E-01
      0.00000000E+00     -0.30000000E-01      0.10000000E+00
      0.00000000E+00     -0.30000000E-01      0.11000000E+00
      0.00000000E+00     -0.30000000E-01      0.12000000E+00
      0.00000000E+00     -0.30000000E-01      0.13000000E+00
      0.00000000E+00     -0.30000000E-01      0.14000000E+00
      0.00000000E+00     -0.30000000E-01      0.15000000E+00
      0.00000000E+00     -0.30000000E-01      0.16000000E+00
      0.00000000E+00     -0.30000000E-01      0.17000000E+00
      0.00000000E+00     -0.30000000E-01      0.18000000E+00
      0.00000000E+00     -0.30000000E-01      0.19000000E+00
      0.00000000E+00     -0.30000000E-01      0.20000000E+00
      0.00000000E+00     -0.30000000E-01      0.21000000E+00
      0.00000000E+00     -0.30000000E-01      0.22000000E+00
      0.00000000E+00     -0.30000000E-01      0.23000000E+00
      0.00000000E+00     -0.30000000E-01      0.24000000E+00
      0.00000000E+00     -0.30000000E-01      0.25000000E+00
      0.00000000E+00     -0.30000000E-01      0.26000000E+00
      0.00000000E+00     -0.30000000E-01      0.27000000E+00
      0.00000000E+00     -0.30000000E-01      0.28000000E+00
      0.00000000E+00     -0.30000000E-01      0.29000000E+00
      0.00000000E+00     -0.30000000E-01      0.30000000E+00
      0.00000000E+00     -0.30000000E-01      0.31000000E+00
      0.00000000E+00     -0.30000000E-01      0.32000000E+00
      0.00000000E+00     -0.30000000E-01      0.33000000E+00
      0.00000000E+00     -0.30000000E-01      0.34000000E+00
      0.00000000E+00     -0.30000000E-01      0.35000000E+00
      0.00000000E+00     -0.30000000E-01      0.36000000E+00
      0.00000000E+00     -0.30000000E-01      0.37000000E+00
      0.00000000E+00     -0.30000000E-01      0.38000000E+00
      0.00000000E+00     -0.30000000E-01      0.39000000E+00
      0.00000000E+00     -0.30000000E-01      0.40000000E+00
      0.00000000E+00     -0.30000000E-01      0.41000000E+00
      0.00000000E+00     -0.30000000E-01      0.42000000E+00
      0.00000000E+00     -0.30000000E-01      0.43000000E+00
      0.00000000E+00     -0.30000000E-01      0.44000000E+00
      0.00000000E+00     -0.30000000E-01      0.45000000E+00
      0.00000000E+00     -0.30000000E-01      0.46000000E+00
      0.00000000E+00     -0.30000000E-01      0.47000000E+00
      0.00000000E+00     -0.30000000E-01      0.48000000E+00
      0.00000000E+00     -0.30000000E-01      0.49000000E+00
      0.45000000E+00     -0.30000000E-01      0.49000000E+00
      0.45000000E+00     -0.30000000E-01      0.48000000E+00
      0.45000000E+00     -0.30000000E-01      0.47000000E+00
      0.45000000E+00     -0.30000000E-01      0.46000000E+00
      0.45000000E+00     -0.30000000E-01      0.45000000E+00
      0.45000000E+00     -0.30000000E-01      0.44000000E+00
      0.45000000E+00     -0.30000000E-01      0.43000000E+00
      0.45000000E+00     -0.30000000E-01      0.42000000E+00
      0.45000000E+00     -0.30000000E-01      0.41000000E+00
      0.45000000E+00     -0.30000000E-01      0.40000000E+00
      0.45000000E+00     -0.30000000E-01      0.39000000E+00
      0.45000000E+00     -0.30000000E-01      0.38000000E+00
      0.45000000E+00     -0.30000000E-01      0.37000000E+00
      0.45000000E+00     -0.30000000E-01      0.36000000E+00
      0.45000000E+00     -0.30000000E-01      0.35000000E+00
      0.45000000E+00     -0.30000000E-01      0.34000000E+00
      0.45000000E+00     -0.30000000E-01      0.33000000E+00
      0.45000000E+00     -0.30000000E-01      0.32000000E+00
      0.45000000E+00     -0.30000000E-01      0.31000000E+00
      0.45000000E+00     -0.30000000E-01      0.30000000E+00
      0.45000000E+00     -0.30000000E-01      0.29000000E+00
      0.45000000E+00     -0.30000000E-01      0.28000000E+00
      0.45000000E+00     -0.30000000E-01      0.27000000E+00
      0.45000000E+00     -0.30000000E-01      0.26000000E+00
      0.45000000E+00     -0.30000000E-01      0.25000000E+00
      0.45000000E+00     -0.30000000E-01      0.24000000E+00
      0.45000000E+00     -0.30000000E-01      0.23000000E+00
      0.45000000E+00     -0.30000000E-01      0.22000000E+00
      0.45000000E+00     -0.30000000E-01      0.21000000E+00
      0.45000000E+00     -0.30000000E-01      0.20000000E+00
      0.45000000E+00     -0.30000000E-01      0.19000000E+00
      0.45000000E+00     -0.30000000E-01      0.18000000E+00
      0.45000000E+00     -0.30000000E-01      0.17000000E+00
      0.45000000E+00     -0.30000000E-01      0.16000000E+00
      0.45000000E+00     -0.30000000E-01      0.15000000E+00
      0.45000000E+00     -0.30000000E-01      0.14000000E+00
      0.45000000E+00     -0.30000000E-01      0.13000000E+00
      0.45000000E+00     -0.30000000E-01      0.12000000E+00
      0.45000000E+00     -0.30000000E-01      0.11000000E+00
      0.45000000E+00     -0.30000000E-01      0.10000000E+00
      0.45000000E+00     -0.30000000E-01      0.90000000E-01
[...]
POINT_DATA      8347
CELL_DATA     31337
SCALARS Resistivity(ohm.m) double 1
LOOKUP_TABLE default
            11.31279            11.25839            11.51919            10.25720            11.92482            10.30408            10.79769            11.52313            10.59037            11.66038            10.59994            11.09166            11.23368            10.91881            12.06015            11.05442            11.01403            10.64341            11.31899            10.38461            10.36850            11.14130            10.36183            11.49871            11.28172            10.66743            10.65772            11.02977            11.60499            10.64136            10.84842            10.59592            11.14841             9.71753            11.44621            10.55909            11.26794            10.07624            12.28796            11.08175            11.31760            11.38485            10.74521            11.63579            14.23172            12.42184            11.54126            11.26047            11.35243             9.70251            11.45542            11.16808            11.37067            11.06135             9.60450            11.15727            11.77313            11.10520            11.23646            12.51159            11.00597            11.20226            10.98147            10.88105            11.40188            10.64691            11.51611             9.78178            11.36176             9.63806            11.27386            11.37039            11.27292            10.93728            11.20303            11.77927            11.75577            11.11528             9.40434            10.79308            11.71422            10.35531            11.32724            10.61293            10.92432            11.24739            10.96123            11.22253            11.45778            10.94154            10.16298            10.69849            11.68942            10.89361             9.61565            11.04644            11.08182            10.59481            11.29093            10.92089            10.96517            11.09689            11.65322            10.76756            11.67101            10.89992            12.80178             9.09332            10.44702            11.66075            10.19202            11.72137            10.99533            11.34982            10.23818            10.93876            10.26681            10.54297            10.39117            10.91164            10.92688            11.21619            11.49845            11.33822            13.03689            10.70222            10.60907            11.19558            10.99570            10.91802            11.04329            10.53903            11.21684            10.86946            11.20773            10.54257            10.86128            10.43024            11.89875            10.76584            11.44241            10.73293            10.47273            11.55656             9.77041            10.78227            10.81068            10.72555            11.19114            11.29166            11.09967            12.29537            11.35027            11.03868            11.69549            11.23238            11.11491            11.76611            11.33753            10.36171            10.95475            11.11146            10.45793            11.21058            11.22494             9.87289            10.10627             9.63078            11.61157            11.75970            10.09790            11.78820            11.28140            11.25999            10.44743            11.14849            11.36712            12.47685            11.55586            10.41437            12.27991            11.00144            11.04111            11.06512            11.17141            10.32761            11.27246            10.77058            11.64066             9.45658            10.57958            11.34097            11.22039            10.19320            11.20507            11.99941            11.30383            11.67968            10.53090            10.85499            12.03195             9.69622            10.94722             9.96636            11.38289            10.31937            10.84671            11.08329            11.32143            10.90806            10.18515             9.33782            10.97929            10.68309            11.26285            10.32302            11.33282            11.41811            11.76951            10.52920            10.88808            11.75890             9.90438            11.54403            10.89268            10.47489            11.25173            10.64684            11.33708            11.62438            11.19703            11.04447            10.73680            10.45688            10.21337            10.39067            11.95838            11.32701            11.33802            10.81419            10.78861            10.56554            11.89111            11.95248            11.13709            10.79533            11.41860            10.72664            11.75365            11.30066             9.89167            10.48734            10.68206            11.04915            10.38701            11.97641            11.02473            11.18486            11.64898            10.21577            10.73211            11.32220            10.96497             9.71839            10.97079            11.11816            10.71876            10.32413            10.05738            11.77191            11.02261             9.91719            10.06251            10.73759            10.59061            10.56361            10.41000            11.91126            11.12462            10.60135            10.41849            10.59982            11.38680            11.42256            10.93234            11.00203            11.23549            10.66525            12.02154            10.90870            10.55417            11.29298            12.59956            11.03498            12.04996            10.53855            10.77702            11.18504            10.41963            11.27600            10.88759            10.89053            10.68573            10.30160            11.16147            11.08239            11.66974            12.19216            14.52804            11.56780            10.70798            10.82449            10.94542            12.44176            11.29449            10.40414            11.23424            10.38809            12.87623            11.01801            11.52162            11.74941            10.70443            13.51797            11.59106            10.60326            11.16905            12.33763            11.12484            10.62527            10.23250            10.95541            10.08190            12.33836            11.18723            11.21189            12.44591            11.15471            10.24111            10.65896            12.87825            10.93254            10.86511            10.62534            11.23773            11.22544            10.10386            10.11404            10.91574            11.26189            10.55450             9.40434            11.15244             9.94737            11.13523            10.63545            10.53541            10.20617            12.93156            10.46364            11.43211            10.65320            10.46686            10.93930            10.68007            10.67973            10.97614            11.45771            11.23769            10.72459            11.38975            10.83968            11.43545            10.31871            11.56290            11.24056             9.76342            10.56543            11.78611            10.63790            10.61124            11.56080            10.82373             9.36686             9.44354            10.51449            11.31699            11.45560             9.98231            11.48635            11.24704            11.27645            10.76129            11.41171            10.52536            11.93742            11.52903            11.40546            11.18716            11.35537            11.40251            11.17066            10.37664            10.76164            10.34581            10.91025            11.08269             8.55245            11.16423            10.60053            11.22976            10.60484            11.31870            10.21423            10.28128            10.55912            11.43490            10.89271            11.03696            10.87749            11.17954            12.20833            10.99013            11.19715            11.44772            11.62937            11.42180            11.24719            10.73628            11.82598            11.02760            11.55333            11.55637             9.47292            10.76952            11.38811            11.04749            10.90026            10.98142            11.40943            13.30922            11.20163            10.20484            11.74293            10.46085            10.22729            11.19558            11.18141            11.03913            10.66781            10.69125            10.64252            10.78391            10.83994            11.85485            12.71212            11.03127            10.63338            11.21040            11.16015            10.73923            11.49542            11.34326            11.28971            11.87975            10.66687            10.46997            11.50792            10.99982            12.22373            11.01430            11.33312            10.60783            11.40070            11.56828            11.62429            11.11228            11.40385            10.55899            10.82632            10.90714            11.83164            10.74598            10.92450            10.99156            11.17145            11.63480            10.30948            11.46310            12.48484            11.35754            10.93778            10.40355            13.43667            11.61169            11.33535            10.98081            10.30412            11.29981            11.31882            10.83181            12.34206            10.95895            10.09894            10.50582            11.14657            10.19743            10.92215            10.95494            10.87249            10.53746            12.04499            10.73679            10.31774            11.12401            11.58866            10.56612            12.20699            12.07685            11.43140            11.27945            10.29395            10.94637            11.93795             9.74563            10.59633            11.07173            10.46745            12.63340            11.32355            10.82721            10.48303            11.02582            10.97538            11.79815            11.19715            11.34734            10.20312            13.84502            10.57123            10.26974            10.68860            10.81315             9.46872            11.27104            10.29456            12.95402            10.74960            11.20426            10.71601            10.87818            11.16926            10.37010            11.03303            10.65126            11.42413            11.28397            11.93011            11.62638            11.25588            11.37550            14.28107            10.09051            10.93180            11.60161            10.75503            11.27305            11.31873            10.99449            10.75423            10.78229            11.86303            11.25597             9.85037            11.01774            10.53816            11.44424            10.81091            10.75390            11.12416            12.11714            10.49940            12.71269            11.25068            10.94954            11.19936            11.16918            13.57723            11.32002            11.40128            11.28857            10.79306            11.30835            12.30150            11.75814            10.86264             9.47020            13.19045            10.52823            10.24128            12.39369            11.12374            11.09114            10.78218            11.20823            11.84707            11.49612            11.09361            14.18250            11.64582            11.11386            10.62924            10.28779            11.04359            10.84271            11.58214            11.82193            11.21185            12.32056            10.94290            10.75924            10.98097            11.07500            11.95787            10.37160            11.29815            10.65610            11.69480            10.85869            10.07086            10.88567            11.16579            11.41543            11.47476             9.51553            10.60703            10.26820            11.99339            10.51576            10.82505            11.41233            11.63466            11.41361            11.31401            11.00056             8.77483            11.00417            11.24215            14.08986            10.78537            10.66410            10.64440            11.05846            10.34996            11.08905            10.99537            11.35511            10.77359            11.14351            11.14489            13.34481            11.51858            10.99346            11.74895            11.60465            11.17649            10.99264            10.53826            11.89871            11.25653            11.12992            11.50103            11.61367            11.45879            11.08989            10.75080            11.02350            10.59450            10.40509            10.79136            10.53857            11.16339            11.19181            11.94828            10.78289            11.33463            10.59370            10.63307            11.30405            10.63539            12.43996            11.15700            11.79339            10.04805            10.93251            11.26378            10.94825            10.90478            10.27743            11.12779            11.00139            10.68502            11.23373            10.77334            10.71527            10.99520            11.36049             9.88621            11.18809            12.10970            10.44261            12.23775            11.35768            10.94097            10.38255            11.14625            11.58225            11.19804            11.80685            11.53384            10.78638            10.66026            10.99661            10.93423            10.29409            10.63041            11.41807            11.42413             9.56449            10.76626            10.72055            11.42269             9.96251            10.43903            10.39947            10.10375            10.53926             9.87883             9.33427            11.48807            12.04346             9.91362            10.68313            10.74531            10.67136            11.82752            11.29687            11.19485            10.66518            12.58267            11.40581            12.38150            10.61033            10.69881            11.47132            11.50029             8.80027            11.14852            10.53054            11.80033            11.73157            11.05381            11.26086            10.78486            10.78088            10.35547            11.37846            11.05262            10.58471            11.75914            11.03309            10.82950            11.53745            11.06885            10.75322            12.92538            11.30557            11.35632            10.64771            11.37882            10.78811            10.41995            10.76161            13.41927            10.88364            11.01291            11.59848            11.13674            10.59255            10.66185            10.59142             9.51964            11.07908            10.71309            10.68508            11.16096            11.31463            10.75092            10.22208            11.03313            10.93981            10.40254            10.56698            10.31874            10.42153            10.94408            11.79556            10.99616            10.68360             9.47125            11.20609            11.67588            10.67018            12.83768            10.09961            11.16079            11.03471            11.88681            11.16578            10.99511             9.90514            11.28775            11.28235            10.35209            10.70467            10.83200            11.00140            10.66377            11.29977            10.72508            11.14869            11.25097            11.20037            11.15398            10.20566            10.61177            11.55967            11.00223            10.34528            11.00966            10.55072            10.07734            10.58482            10.45573            11.19426            10.95138            11.18777            10.71174            10.54394            11.19992            11.15424            10.59704            12.03158            10.54247            11.31865            11.00274            10.40886            10.56519            11.38901            11.01521            11.31521            10.70205            11.01641            11.17817            10.92509            11.78918            10.63210            10.82553            11.51367            12.56192             9.44013            11.25792            10.81693            10.98341            10.93231            11.50190            11.32050            10.71310            11.48202            12.18327            11.83152            10.21007            11.37149            10.67793            10.49994            12.66492            11.22140            11.04424            10.73097            11.04578            10.55929            11.20448            11.36068            12.17386            10.51406            10.97952            11.10117            10.53138            10.64803            10.73542             9.77822            11.79872            10.48171            11.05797            10.52208            10.91326            10.12828            11.26407            10.27461            10.57918            11.68887            11.45297            10.28160            10.70093             8.70696            10.67341            10.01274            10.99325            11.25161            10.91116            11.19978            10.44085            11.83951            11.46578            11.49798            11.68999            11.42891            10.97980            10.41681            10.45822            11.37907            10.57968            11.88619            10.87011            12.04210            11.53393            10.59128            10.92667            11.10066            11.55528            10.77654            10.89338            11.53671            13.08897             9.96931            10.66706            11.23554            10.74098            10.67007            10.08631            10.28398            11.37948            10.80108            10.42210            11.40358            10.95223            10.93257            11.08471            11.50964            11.30377            10.78783            12.29107            11.26493            10.78010            10.53232            11.36811            11.27896            10.51860            14.18722            10.57577            10.89527            10.16339            10.79788            11.64303            11.83382            10.80966            10.67220            11.60610            12.16972            11.02419            10.91544            11.29301            10.99359            11.48798            11.08115            10.01084            10.98104            10.73480            10.26522            11.52078            10.49738            10.14984            11.47300            11.87975            10.99862  