# vtk DataFile Version 3.0
Output from R3t
ASCII
DATASET UNSTRUCTURED_GRID
POINTS       8652 double
      0.50000000E-01     -0.50000000E-02      0.48500000E+00
      0.10000000E+00     -0.50000000E-02      0.48500000E+00
      0.15000000E+00     -0.50000000E-02      0.48500000E+00
      0.20000000E+00     -0.50000000E-02      0.48500000E+00
      0.25000000E+00     -0.50000000E-02      0.48500000E+00
      0.30000000E+00     -0.50000000E-02      0.48500000E+00
      0.35000000E+00     -0.50000000E-02      0.48500000E+00
      0.40000000E+00     -0.50000000E-02      0.48500000E+00
      0.50000000E-01      0.00000000E+00      0.42500000E+00
      0.10000000E+00      0.00000000E+00      0.42500000E+00
      0.15000000E+00      0.00000000E+00      0.42500000E+00
      0.20000000E+00      0.00000000E+00      0.42500000E+00
      0.25000000E+00      0.00000000E+00      0.42500000E+00
      0.30000000E+00      0.00000000E+00      0.42500000E+00
      0.35000000E+00      0.00000000E+00      0.42500000E+00
      0.40000000E+00      0.00000000E+00      0.42500000E+00
      0.50000000E-01      0.00000000E+00      0.37500000E+00
      0.10000000E+00      0.00000000E+00      0.37500000E+00
      0.15000000E+00      0.00000000E+00      0.37500000E+00
      0.20000000E+00      0.00000000E+00      0.37500000E+00
      0.25000000E+00      0.00000000E+00      0.37500000E+00
      0.30000000E+00      0.00000000E+00      0.37500000E+00
      0.35000000E+00      0.00000000E+00      0.37500000E+00
      0.40000000E+00      0.00000000E+00      0.37500000E+00
      0.50000000E-01      0.00000000E+00      0.32500000E+00
      0.10000000E+00      0.00000000E+00      0.32500000E+00
      0.15000000E+00      0.00000000E+00      0.32500000E+00
      0.20000000E+00      0.00000000E+00      0.32500000E+00
      0.25000000E+00      0.00000000E+00      0.32500000E+00
      0.30000000E+00      0.00000000E+00      0.32500000E+00
      0.35000000E+00      0.00000000E+00      0.32500000E+00
      0.40000000E+00      0.00000000E+00      0.32500000E+00
      0.50000000E-01      0.00000000E+00      0.27500000E+00
      0.10000000E+00      0.00000000E+00      0.27500000E+00
      0.15000000E+00      0.00000000E+00      0.27500000E+00
      0.20000000E+00      0.00000000E+00      0.27500000E+00
      0.25000000E+00      0.00000000E+00      0.27500000E+00
      0.30000000E+00      0.00000000E+00      0.27500000E+00
      0.35000000E+00      0.00000000E+00      0.27500000E+00
      0.40000000E+00      0.00000000E+00      0.27500000E+00
      0.50000000E-01      0.00000000E+00      0.22500000E+00
      0.10000000E+00      0.00000000E+00      0.22500000E+00
      0.15000000E+00      0.00000000E+00      0.22500000E+00
      0.20000000E+00      0.00000000E+00      0.22500000E+00
      0.25000000E+00      0.00000000E+00      0.22500000E+00
      0.30000000E+00      0.00000000E+00      0.22500000E+00
      0.35000000E+00      0.00000000E+00      0.22500000E+00
      0.40000000E+00      0.00000000E+00      0.22500000E+00
      0.50000000E-01      0.00000000E+00      0.17500000E+00
      0.10000000E+00      0.00000000E+00      0.17500000E+00
      0.15000000E+00      0.00000000E+00      0.17500000E+00
      0.20000000E+00      0.00000000E+00      0.17500000E+00
      0.50000000E-01      0.00000000E+00      0.12500000E+00
      0.10000000E+00      0.00000000E+00      0.12500000E+00
      0.15000000E+00      0.00000000E+00      0.12500000E+00
      0.20000000E+00      0.00000000E+00      0.12500000E+00
      0.25000000E+00      0.00000000E+00      0.12500000E+00
      0.30000000E+00      0.00000000E+00      0.12500000E+00
      0.35000000E+00      0.00000000E+00      0.12500000E+00
      0.40000000E+00      0.00000000E+00      0.12500000E+00
      0.50000000E-01      0.00000000E+00      0.75000000E-01
      0.10000000E+00      0.00000000E+00      0.75000000E-01
      0.15000000E+00      0.00000000E+00      0.75000000E-01
      0.20000000E+00      0.00000000E+00      0.75000000E-01
      0.25000000E+00      0.00000000E+00      0.75000000E-01
      0.30000000E+00      0.00000000E+00      0.75000000E-01
      0.35000000E+00      0.00000000E+00      0.75000000E-01
      0.40000000E+00      0.00000000E+00      0.75000000E-01
      0.00000000E+00      0.00000000E+00      0.00000000E+00
      0.45000000E+00      0.00000000E+00      0.00000000E+00
      0.00000000E+00      0.00000000E+00      0.50000000E+00
      0.45000000E+00      0.00000000E+00      0.50000000E+00
      0.00000000E+00     -0.30000000E-01      0.00000000E+00
      0.45000000E+00     -0.30000000E-01      0.00000000E+00
      0.00000000E+00     -0.30000000E-01      0.50000000E+00
      0.45000000E+00     -0.30000000E-01      0.50000000E+00
      0.00000000E+00     -0.30000000E-01      0.10000000E-01
      0.00000000E+00     -0.30000000E-01      0.20000000E-01
      0.00000000E+00     -0.30000000E-01      0.30000000E-01
      0.00000000E+00     -0.30000000E-01      0.40000000E-01
      0.00000000E+00     -0.30000000E-01      0.50000000E-01
      0.00000000E+00     -0.30000000E-01      0.60000000E-01
      0.00000000E+00     -0.30000000E-01      0.70000000E-01
      0.00000000E+00     -0.30000000E-01      0.80000000E-01
      0.00000000E+00     -0.30000000E-01      0.90000000E-01
      0.00000000E+00     -0.30000000E-01      0.10000000E+00
      0.00000000E+00     -0.30000000E-01      0.11000000E+00
      0.00000000E+00     -0.30000000E-01      0.12000000E+00
      0.00000000E+00     -0.30000000E-01      0.13000000E+00
      0.00000000E+00     -0.30000000E-01      0.14000000E+00
      0.00000000E+00     -0.30000000E-01      0.15000000E+00
      0.00000000E+00     -0.30000000E-01      0.16000000E+00
      0.00000000E+00     -0.30000000E-01      0.17000000E+00
      0.00000000E+00     -0.30000000E-01      0.18000000E+00
      0.00000000E+00     -0.30000000E-01      0.19000000E+00
      0.00000000E+00     -0.30000000E-01      0.20000000E+00
      0.00000000E+00     -0.30000000E-01      0.21000000E+00
      0.00000000E+00     -0.30000000E-01      0.22000000E+00
      0.00000000E+00     -0.30000000E-01      0.23000000E+00
      0.00000000E+00     -0.30000000E-01      0.24000000E+00
      0.00000000E+00     -0.30000000E-01      0.25000000E+00
      0.00000000E+00     -0.30000000E-01      0.26000000E+00
      0.00000000E+00     -0.30000000E-01      0.27000000E+00
      0.00000000E+00     -0.30000000E-01      0.28000000E+00
      0.00000000E+00     -0.30000000E-01      0.29000000E+00
      0.00000000E+00     -0.30000000E-01      0.30000000E+00
      0.00000000E+00     -0.30000000E-01      0.31000000E+00
      0.00000000E+00     -0.30000000E-01      0.32000000E+00
      0.00000000E+00     -0.30000000E-01      0.33000000E+00
      0.00000000E+00     -0.30000000E-01      0.34000000E+00
      0.00000000E+00     -0.30000000E-01      0.35000000E+00
      0.00000000E+00     -0.30000000E-01      0.36000000E+00
      0.00000000E+00     -0.30000000E-01      0.37000000E+00
      0.00000000E+00     -0.30000000E-01      0.38000000E+00
      0.00000000E+00     -0.30000000E-01      0.39000000E+00
      0.00000000E+00     -0.30000000E-01      0.40000000E+00
      0.00000000E+00     -0.30000000E-01      0.41000000E+00
      0.00000000E+00     -0.30000000E-01      0.42000000E+00
      0.00000000E+00     -0.30000000E-01      0.43000000E+00
      0.00000000E+00     -0.30000000E-01      0.44000000E+00
      0.00000000E+00     -0.30000000E-01      0.45000000E+00
      0.00000000E+00     -0.30000000E-01      0.46000000E+00
      0.00000000E+00     -0.30000000E-01      0.47000000E+00
      0.00000000E+00     -0.30000000E-01      0.48000000E+00
      0.00000000E+00     -0.30000000E-01      0.49000000E+00
      0.10000000E-01     -0.30000000E-01      0.50000000E+00
      0.20000000E-01     -0.30000000E-01      0.50000000E+00
      0.30000000E-01     -0.30000000E-01      0.50000000E+00
      0.40000000E-01     -0.30000000E-01      0.50000000E+00
      0.50000000E-01     -0.30000000E-01      0.50000000E+00
      0.60000000E-01     -0.30000000E-01      0.50000000E+00
      0.70000000E-01     -0.30000000E-01      0.50000000E+00
      0.80000000E-01     -0.30000000E-01      0.50000000E+00
      0.90000000E-01     -0.30000000E-01      0.50000000E+00
      0.10000000E+00     -0.30000000E-01      0.50000000E+00
      0.11000000E+00     -0.30000000E-01      0.50000000E+00
      0.12000000E+00     -0.30000000E-01      0.50000000E+00
      0.13000000E+00     -0.30000000E-01      0.50000000E+00
      0.14000000E+00     -0.30000000E-01      0.50000000E+00
      0.15000000E+00     -0.30000000E-01      0.50000000E+00
      0.16000000E+00     -0.30000000E-01      0.50000000E+00
      0.17000000E+00     -0.30000000E-01      0.50000000E+00
      0.18000000E+00     -0.30000000E-01      0.50000000E+00
      0.19000000E+00     -0.30000000E-01      0.50000000E+00
      0.20000000E+00     -0.30000000E-01      0.50000000E+00
      0.21000000E+00     -0.30000000E-01      0.50000000E+00
      0.22000000E+00     -0.30000000E-01      0.50000000E+00
      0.23000000E+00     -0.30000000E-01      0.50000000E+00
      0.24000000E+00     -0.30000000E-01      0.50000000E+00
      0.25000000E+00     -0.30000000E-01      0.50000000E+00
      0.26000000E+00     -0.30000000E-01      0.50000000E+00
      0.27000000E+00     -0.30000000E-01      0.50000000E+00
      0.28000000E+00     -0.30000000E-01      0.50000000E+00
      0.29000000E+00     -0.30000000E-01      0.50000000E+00
      0.30000000E+00     -0.30000000E-01      0.50000000E+00
      0.31000000E+00     -0.30000000E-01      0.50000000E+00
      0.32000000E+00     -0.30000000E-01      0.50000000E+00
      0.33000000E+00     -0.30000000E-01      0.50000000E+00
      0.34000000E+00     -0.30000000E-01      0.50000000E+00
      0.35000000E+00     -0.30000000E-01      0.50000000E+00
      0.36000000E+00     -0.30000000E-01      0.50000000E+00
      0.37000000E+00     -0.30000000E-01      0.50000000E+00
[...]
POINT_DATA      8652
CELL_DATA     32557
SCALARS Resistivity(ohm.m) double 1
LOOKUP_TABLE default
            12.71243            13.40474            12.74182            13.17124            12.99455            12.32741            13.51414            12.81323            13.15412            12.39272            12.38471            12.15333            12.18959            13.28750            12.92481            12.85171            12.63308            13.35211            13.08560            13.41332            13.10725            12.96817            12.73801            12.38653            12.91395            12.85251            12.78015            13.17567            13.23244            12.69917            13.15432            13.11010            12.97162            12.81308            13.10424            13.22484            12.86537            13.29478            12.98715            12.80288            13.09219            13.40606            13.51416            13.29217            13.48560            12.80968            13.43688            13.22178            12.99337            13.34673            12.75102            13.29757            12.30656            13.26070            13.24201            12.96555            12.32390            12.38098            13.34012            12.67977            12.77292            12.72244            12.91891            13.33642            13.39007            13.22489            13.48733            13.40827            12.26771            12.67351            12.98154            12.62551            12.85521            12.41924            13.23364            12.60924            13.36022            13.32675            12.69689            12.67202            13.09692            13.29849            12.81332            13.13920            13.15800            12.61290            12.52286            13.23459            13.23590            12.20557            13.03137            12.42571            13.24248            13.24129            13.03161            12.47898            13.39316            13.43173            12.69299            12.32985            12.40895            12.79511            13.17355            13.25995            12.81803            13.39942            12.84923            13.36947            12.20492            12.69842            13.38869            13.02777            13.03931            13.01541            13.24286            13.13127            12.97342            13.22915            12.70399            13.12154            13.16047            12.83995            13.54171            12.32917            13.41587            13.13613            12.79661            12.76911            13.02217            13.00169            13.02037            13.34178            13.09190            12.76826            12.12264            13.04775            13.15889            13.22057            13.09960            12.81702            13.37695            12.80092            13.10698            13.30550            13.11938            13.39205            12.67871            12.70715            13.18420            12.81880            12.88130            12.69127            12.97213            13.35221            12.80559            12.61107            13.09939            12.28730            13.30613            13.34198            12.67417            13.33601            12.63375            13.22237            13.21027            13.33928            13.29845            13.08647            12.65636            12.72433            12.47685            12.29506            13.22964            12.74575            12.28141            12.98254            12.97353            13.08134            13.43138            13.32676            13.44538            13.24366            13.15361            12.78403            13.38827            13.25428            12.83707            13.41455            13.16880            13.08604            13.03282            12.82188            12.67707            13.08419            12.51540            13.28315            13.18273            13.22705            13.36599            13.52146            12.95372            13.28516            13.35103            13.06878            12.75025            13.38101            13.08992            12.81848            12.82929            13.37004            13.18093            13.00982            13.17115            12.82154            13.08680            13.15778            13.06161            13.12948            13.21369            13.03941            13.33852            12.28353            12.62657            13.37545            12.84335            12.67781            13.31562            13.16851            12.95583            13.29886            13.27179            13.33805            12.76477            13.09761            12.78536            13.09391            13.13617            13.30997            13.13871            12.91439            13.32118            13.41603            13.17449            12.79929            13.05142            12.27714            12.80527            13.17795            13.10375            12.98970            13.14170            12.82619            12.87917            12.94844            12.50214            13.16205            13.17418            12.97707            12.68054            13.13983            12.71111            13.54641            12.67216            12.98064            12.77030            13.01060            13.05506            12.61646            12.70309            12.81783            12.85576            12.89517            12.99072            12.28063            12.90373            12.67687            12.19156            12.73553            13.19282            12.66947            12.24390            13.06539            12.65817            13.45096            12.71567            12.61497            12.67557            12.87405            13.26711            13.18407            13.13658            12.84224            13.16035            12.66817            13.01081            12.40102            12.39295            12.69544            13.05372            12.98299            13.15481            12.88120            13.38601            13.07625            12.61065            12.78564            12.68356            12.79069            13.14573            12.17301            12.68732            13.39128            12.67598            12.80689            12.70865            13.47351            13.02920            13.53081            13.39122            12.78208            13.45150            13.30314            12.67600            12.76494            12.80293            12.98449            13.23236            13.10405            12.70387            12.80109            12.86656            13.14801            12.99882            12.60036            13.32466            13.12955            12.77321            12.98374            13.20993            12.20606            12.85281            12.98407            13.32183            13.22936            12.22438            13.17904            12.76215            13.10872            13.43628            13.09274            13.11996            13.25591            13.21374            12.72476            13.53051            13.36008            12.66988            13.09629            12.91012            12.80871            13.25603            13.14640            12.72410            13.09888            13.19853            12.76759            12.92390            12.69286            12.18436            12.77482            13.21685            13.09307            13.16134            13.03168            13.19110            12.96127            12.77687            12.80516            13.09885            13.09745            12.76936            13.53373            13.37886            12.80387            13.06822            12.93785            13.10571            12.62565            13.39536            13.17378            12.24642            12.17600            12.37991            13.37801            12.78962            12.68418            13.25674            13.22623            13.02589            12.69324            12.99914            12.71854            12.80086            13.13218            12.30738            13.38995            12.37207            13.14839            12.68388            13.24896            13.35899            12.76225            13.12068            12.81340            12.79536            12.98239            12.87811            13.37964            13.07333            13.34854            12.76146            13.39875            13.07580            12.30316            13.13146            13.53884            12.83089            13.03064            12.80746            12.17243            13.36909            12.68073            13.34327            12.59338            13.01700            13.50438            13.39642            12.12204            13.00609            13.04854            13.04196            12.80757            12.18073            13.43588            13.51501            13.36275            12.97087            13.27175            13.31043            12.19750            12.75187            13.25840            12.18754            13.36943            13.10286            12.71600            13.37097            13.24745            13.25105            12.99822            13.15646            13.03294            13.16698            12.35237            13.32998            12.79400            13.53513            13.18021            12.81985            12.34450            12.72303            13.40587            13.02032            13.00719            12.94898            13.14330            13.05978            12.93744            13.24214            12.81160            13.24078            13.29076            13.19318            12.94342            12.80712            13.08130            13.28685            13.27158            12.62543            13.24272            12.43389            13.41790            13.10466            13.17350            12.71025            13.14266            13.10675            13.21470            12.16349            13.25707            13.11601            12.86215            13.38419            12.81087            12.78611            12.65153            13.39781            13.18407            13.37485            13.22673            13.07332            12.21533            12.82163            12.79104            13.08760            13.05617            12.98744            13.06551            13.18172            13.29365            13.05177            12.89520            13.37027            12.55259            13.24254            13.38062            12.71726            13.34719            12.80671            13.25680            13.17599            12.47159            13.13752            13.10675            13.07951            13.09933            13.28121            13.03256            12.26064            12.33090            13.07349            13.29088            13.23623            12.70431            12.79021            13.25236            12.77178            12.64782            12.81146            13.08298            12.46025            13.37736            13.11016            12.78349            12.73922            12.83800            13.36137            12.49563            12.82220            12.62301            13.21007            12.99558            13.06858            13.21807            13.33196            13.38722            12.87884            13.28014            12.73081            13.36135            13.00987            12.81058            13.17406            12.92457            12.80955            12.82026            12.71037            13.33974            13.13796            13.16614            12.87935            13.37539            12.81151            13.05715            12.91718            12.38330            12.80787            13.53341            12.56939            13.21227            13.36858            12.97309            12.18736            13.29101            12.99991            12.81105            12.64337            12.81098            12.99744            12.81283            12.86367            13.10694            13.29013            12.84918            12.28509            13.19600            12.95966            12.80303            12.41925            12.74695            12.78312            12.66779            13.01115            12.82015            13.35917            13.37052            12.39007            13.13762            12.81075            13.20401            12.34017            13.18132            12.68986            12.81497            12.14652            12.64731            13.38311            13.01968            13.26030            13.33517            13.22740            12.73998            13.35852            13.16438            13.37942            12.82763            12.54117            13.53343            13.23026            12.64637            13.22769            13.21817            13.33522            12.72303            13.13082            12.72156            12.71641            12.31305            13.41254            13.12995            13.43699            13.33529            12.67295            12.37752            12.95399            13.13634            12.78731            13.20116            12.96554            12.81105            12.83294            12.70754            13.11277            13.29240            12.82841            12.73631            12.21970            13.40057            13.00955            13.16868            13.17098            12.63566            12.79884            13.31104            13.38102            12.81123            12.81832            13.21407            13.24014            12.97363            13.28432            13.27613            12.50755            13.25622            13.29220            13.11272            12.52785            13.06257            12.21732            13.40961            13.12386            12.22947            13.22329            12.91523            13.10794            13.30329            13.09396            12.82004            13.32125            13.20278            13.16579            12.68462            13.39412            12.67248            13.32288            13.09642            12.72683            12.93226            12.47973            12.89849            13.20773            12.71679            12.90654            12.21138            13.15176            13.18922            13.21692            12.82020            12.22943            13.06715            12.28929            13.01195            13.36288            13.41785            13.04993            13.23617            13.54209            12.54520            13.37652            13.24955            13.15332            13.27543            12.83827            12.30117            12.88386            13.21570            13.20682            13.13765            13.37505            13.37662            13.27109            12.82021            12.25665            13.18521            12.72081            13.33485            12.82297            12.52871            12.81170            12.93727            13.15480            12.98406            12.74423            12.81239            13.27374            13.01030            13.09539            13.36439            12.87148            12.70487            13.04604            12.29654            13.22957            12.77293            13.25162            13.34836            13.18478            12.70774            13.45111            13.39879            12.78523            13.10081            12.75499            12.32782            13.14865            13.13732            13.43868            12.82903            13.38435            12.79877            12.82323            13.17297            12.44524            12.68959            13.42174            12.70470            12.75485            13.33609            13.07297            12.79468            13.44069            13.15662            13.17765            13.34357            13.07419            12.81419            13.38719            12.78634            13.10290            13.16744            12.93331            13.39682            13.08059            13.36316            13.32310            13.16459            12.83029            12.66532            13.34162            12.67779            13.28163            13.07583            12.66826            12.90350            12.17032            12.86305            13.21277            13.10987            13.22129            13.38111            13.24975            12.94450            13.20382            13.38366            12.77949            13.38044            12.73037            13.06147            13.22022            12.67942            12.85028            12.93438            12.90830            13.05813            13.46975            12.71794            13.45433            13.37547            13.38678            13.18038            13.10923            12.85728            12.67997            13.16351            13.27620            13.26171            13.01872            13.27845            12.69602            13.04255            13.07533            12.60028            13.31029            13.39415            12.60733            13.24415            13.36059            13.26639            12.75407            13.02138            12.68073            13.32332            13.31320            13.06820            12.96154            12.98879            13.26374            13.11611            13.42674            13.38774            13.35540            12.92598            12.82896            12.23979            13.00921            12.98876            13.21046            13.26178            13.41099            12.90680            12.90266            12.28276            13.38342            12.59661            13.13838            12.80361            12.84072            13.27185            13.17373            13.17169            12.96839            13.13090            12.87528            13.31275            12.98798            13.11199            13.28837            12.67253            13.32924            13.13515            13.11147            13.30652            12.85700            12.81705            13.44752            13.17490            13.07600            13.29957            12.34577            12.81014            12.65148            12.90147            13.26085            13.10090            12.77410            12.90970            12.63671            12.28208            13.15514            12.79238            12.89734            13.07001            12.88803            13.28173            13.05547            13.49305            12.88263            13.25504            12.16322            13.14478            12.21472            12.78961            12.98489            13.04696            12.69352            13.51065            13.29527            12.61125            12.97340            12.68286            12.31607            13.49335            12.32288            13.23627            13.26320            12.88789            12.75524            13.32859            13.17296            13.08455            13.07434            12.80245            12.30026            13.09791            12.83633            13.39507            13.30937            13.10900            13.11498            13.04419            12.80380            12.72572            13.15319            13.30950            13.37905            12.78943            12.66628            12.70970            13.28028            13.46382            13.13182            13.06932            12.74269            12.68843            13.12330            13.36479            12.67154            12.77439            13.11977            12.78323            13.22799            13.10563            13.09952            12.87511            12.92434            13.14736            12.81097            13.10036            13.23566            12.80993            12.24088            13.35172            13.23012            12.35791            12.79227  