# vtk DataFile Version 3.0
Output from R3t
ASCII
DATASET UNSTRUCTURED_GRID
POINTS       8652 double
      0.50000000E-01     -0.50000000E-02      0.48500000E+00
      0.10000000E+00     -0.50000000E-02      0.48500000E+00
      0.15000000E+00     -0.50000000E-02      0.48500000E+00
      0.20000000E+00     -0.50000000E-02      0.48500000E+00
      0.25000000E+00     -0.50000000E-02      0.48500000E+00
      0.30000000E+00     -0.50000000E-02      0.48500000E+00
      0.35000000E+00     -0.50000000E-02      0.48500000E+00
      0.40000000E+00     -0.50000000E-02      0.48500000E+00
      0.50000000E-01      0.00000000E+00      0.42500000E+00
      0.10000000E+00      0.00000000E+00      0.42500000E+00
      0.15000000E+00      0.00000000E+00      0.42500000E+00
      0.20000000E+00      0.00000000E+00      0.42500000E+00
      0.25000000E+00      0.00000000E+00      0.42500000E+00
      0.30000000E+00      0.00000000E+00      0.42500000E+00
      0.35000000E+00      0.00000000E+00      0.42500000E+00
      0.40000000E+00      0.00000000E+00      0.42500000E+00
      0.50000000E-01      0.00000000E+00      0.37500000E+00
      0.10000000E+00      0.00000000E+00      0.37500000E+00
      0.15000000E+00      0.00000000E+00      0.37500000E+00
      0.20000000E+00      0.00000000E+00      0.37500000E+00
      0.25000000E+00      0.00000000E+00      0.37500000E+00
      0.30000000E+00      0.00000000E+00      0.37500000E+00
      0.35000000E+00      0.00000000E+00      0.37500000E+00
      0.40000000E+00      0.00000000E+00      0.37500000E+00
      0.50000000E-01      0.00000000E+00      0.32500000E+00
      0.10000000E+00      0.00000000E+00      0.32500000E+00
      0.15000000E+00      0.00000000E+00      0.32500000E+00
      0.20000000E+00      0.00000000E+00      0.32500000E+00
      0.25000000E+00      0.00000000E+00      0.32500000E+00
      0.30000000E+00      0.00000000E+00      0.32500000E+00
      0.35000000E+00      0.00000000E+00      0.32500000E+00
      0.40000000E+00      0.00000000E+00      0.32500000E+00
      0.50000000E-01      0.00000000E+00      0.27500000E+00
      0.10000000E+00      0.00000000E+00      0.27500000E+00
      0.15000000E+00      0.00000000E+00      0.27500000E+00
      0.20000000E+00      0.00000000E+00      0.27500000E+00
      0.25000000E+00      0.00000000E+00      0.27500000E+00
      0.30000000E+00      0.00000000E+00      0.27500000E+00
      0.35000000E+00      0.00000000E+00      0.27500000E+00
      0.40000000E+00      0.00000000E+00      0.27500000E+00
      0.50000000E-01      0.00000000E+00      0.22500000E+00
      0.10000000E+00      0.00000000E+00      0.22500000E+00
      0.15000000E+00      0.00000000E+00      0.22500000E+00
      0.20000000E+00      0.00000000E+00      0.22500000E+00
      0.25000000E+00      0.00000000E+00      0.22500000E+00
      0.30000000E+00      0.00000000E+00      0.22500000E+00
      0.35000000E+00      0.00000000E+00      0.22500000E+00
      0.40000000E+00      0.00000000E+00      0.22500000E+00
      0.50000000E-01      0.00000000E+00      0.17500000E+00
      0.10000000E+00      0.00000000E+00      0.17500000E+00
      0.15000000E+00      0.00000000E+00      0.17500000E+00
      0.20000000E+00      0.00000000E+00      0.17500000E+00
      0.50000000E-01      0.00000000E+00      0.12500000E+00
      0.10000000E+00      0.00000000E+00      0.12500000E+00
      0.15000000E+00      0.00000000E+00      0.12500000E+00
      0.20000000E+00      0.00000000E+00      0.12500000E+00
      0.25000000E+00      0.00000000E+00      0.12500000E+00
      0.30000000E+00      0.00000000E+00      0.12500000E+00
      0.35000000E+00      0.00000000E+00      0.12500000E+00
      0.40000000E+00      0.00000000E+00      0.12500000E+00
      0.50000000E-01      0.00000000E+00      0.75000000E-01
      0.10000000E+00      0.00000000E+00      0.75000000E-01
      0.15000000E+00      0.00000000E+00      0.75000000E-01
      0.20000000E+00      0.00000000E+00      0.75000000E-01
      0.25000000E+00      0.00000000E+00      0.75000000E-01
      0.30000000E+00      0.00000000E+00      0.75000000E-01
      0.35000000E+00      0.00000000E+00      0.75000000E-01
      0.40000000E+00      0.00000000E+00      0.75000000E-01
      0.00000000E+00      0.00000000E+00      0.00000000E+00
      0.45000000E+00      0.00000000E+00      0.00000000E+00
      0.00000000E+00      0.00000000E+00      0.50000000E+00
      0.45000000E+00      0.00000000E+00      0.50000000E+00
      0.00000000E+00     -0.30000000E-01      0.00000000E+00
      0.45000000E+00     -0.30000000E-01      0.00000000E+00
      0.00000000E+00     -0.30000000E-01      0.50000000E+00
      0.45000000E+00     -0.30000000E-01      0.50000000E+00
      0.00000000E+00     -0.30000000E-01      0.10000000E-01
      0.00000000E+00     -0.30000000E-01      0.20000000E-01
      0.00000000E+00     -0.30000000E-01      0.30000000E-01
      0.00000000E+00     -0.30000000E-01      0.40000000E-01
      0.00000000E+00     -0.30000000E-01      0.50000000E-01
      0.00000000E+00     -0.30000000E-01      0.60000000E-01
      0.00000000E+00     -0.30000000E-01      0.70000000E-01
      0.00000000E+00     -0.30000000E-01      0.80000000E-01
      0.00000000E+00     -0.30000000E-01      0.90000000E-01
      0.00000000E+00     -0.30000000E-01      0.10000000E+00
      0.00000000E+00     -0.30000000E-01      0.11000000E+00
      0.00000000E+00     -0.30000000E-01      0.12000000E+00
      0.00000000E+00     -0.30000000E-01      0.13000000E+00
      0.00000000E+00     -0.30000000E-01      0.14000000E+00
      0.00000000E+00     -0.30000000E-01      0.15000000E+00
      0.00000000E+00     -0.30000000E-01      0.16000000E+00
      0.00000000E+00     -0.30000000E-01      0.17000000E+00
      0.00000000E+00     -0.30000000E-01      0.18000000E+00
      0.00000000E+00     -0.30000000E-01      0.19000000E+00
      0.00000000E+00     -0.30000000E-01      0.20000000E+00
      0.00000000E+00     -0.30000000E-01      0.21000000E+00
      0.00000000E+00     -0.30000000E-01      0.22000000E+00
      0.00000000E+00     -0.30000000E-01      0.23000000E+00
      0.00000000E+00     -0.30000000E-01      0.24000000E+00
      0.00000000E+00     -0.30000000E-01      0.25000000E+00
      0.00000000E+00     -0.30000000E-01      0.26000000E+00
      0.00000000E+00     -0.30000000E-01      0.27000000E+00
      0.00000000E+00     -0.30000000E-01      0.28000000E+00
      0.00000000E+00     -0.30000000E-01      0.29000000E+00
      0.00000000E+00     -0.30000000E-01      0.30000000E+00
      0.00000000E+00     -0.30000000E-01      0.31000000E+00
      0.00000000E+00     -0.30000000E-01      0.32000000E+00
      0.00000000E+00     -0.30000000E-01      0.33000000E+00
      0.00000000E+00     -0.30000000E-01      0.34000000E+00
      0.00000000E+00     -0.30000000E-01      0.35000000E+00
      0.00000000E+00     -0.30000000E-01      0.36000000E+00
      0.00000000E+00     -0.30000000E-01      0.37000000E+00
      0.00000000E+00     -0.30000000E-01      0.38000000E+00
      0.00000000E+00     -0.30000000E-01      0.39000000E+00
      0.00000000E+00     -0.30000000E-01      0.40000000E+00
      0.00000000E+00     -0.30000000E-01      0.41000000E+00
      0.00000000E+00     -0.30000000E-01      0.42000000E+00
      0.00000000E+00     -0.30000000E-01      0.43000000E+00
      0.00000000E+00     -0.30000000E-01      0.44000000E+00
      0.00000000E+00     -0.30000000E-01      0.45000000E+00
      0.00000000E+00     -0.30000000E-01      0.46000000E+00
      0.00000000E+00     -0.30000000E-01      0.47000000E+00
      0.00000000E+00     -0.30000000E-01      0.48000000E+00
      0.00000000E+00     -0.30000000E-01      0.49000000E+00
      0.10000000E-01     -0.30000000E-01      0.50000000E+00
      0.20000000E-01     -0.30000000E-01      0.50000000E+00
      0.30000000E-01     -0.30000000E-01      0.50000000E+00
      0.40000000E-01     -0.30000000E-01      0.50000000E+00
      0.50000000E-01     -0.30000000E-01      0.50000000E+00
      0.60000000E-01     -0.30000000E-01      0.50000000E+00
      0.70000000E-01     -0.30000000E-01      0.50000000E+00
      0.80000000E-01     -0.30000000E-01      0.50000000E+00
      0.90000000E-01     -0.30000000E-01      0.50000000E+00
      0.10000000E+00     -0.30000000E-01      0.50000000E+00
      0.11000000E+00     -0.30000000E-01      0.50000000E+00
      0.12000000E+00     -0.30000000E-01      0.50000000E+00
      0.13000000E+00     -0.30000000E-01      0.50000000E+00
      0.14000000E+00     -0.30000000E-01      0.50000000E+00
      0.15000000E+00     -0.30000000E-01      0.50000000E+00
      0.16000000E+00     -0.30000000E-01      0.50000000E+00
      0.17000000E+00     -0.30000000E-01      0.50000000E+00
      0.18000000E+00     -0.30000000E-01      0.50000000E+00
      0.19000000E+00     -0.30000000E-01      0.50000000E+00
      0.20000000E+00     -0.30000000E-01      0.50000000E+00
      0.21000000E+00     -0.30000000E-01      0.50000000E+00
      0.22000000E+00     -0.30000000E-01      0.50000000E+00
      0.23000000E+00     -0.30000000E-01      0.50000000E+00
      0.24000000E+00     -0.30000000E-01      0.50000000E+00
      0.25000000E+00     -0.30000000E-01      0.50000000E+00
      0.26000000E+00     -0.30000000E-01      0.50000000E+00
      0.27000000E+00     -0.30000000E-01      0.50000000E+00
      0.28000000E+00     -0.30000000E-01      0.50000000E+00
      0.29000000E+00     -0.30000000E-01      0.50000000E+00
      0.30000000E+00     -0.30000000E-01      0.50000000E+00
      0.31000000E+00     -0.30000000E-01      0.50000000E+00
      0.32000000E+00     -0.30000000E-01      0.50000000E+00
      0.33000000E+00     -0.30000000E-01      0.50000000E+00
      0.34000000E+00     -0.30000000E-01      0.50000000E+00
      0.35000000E+00     -0.30000000E-01      0.50000000E+00
      0.36000000E+00     -0.30000000E-01      0.50000000E+00
      0.37000000E+00     -0.30000000E-01      0.50000000E+00
[...]
POINT_DATA      8652
CELL_DATA     32557
SCALARS Resistivity(ohm.m) double 1
LOOKUP_TABLE default
            12.79776            13.49250            12.83167            13.16702            12.96314            12.11437            13.49210            12.84737            13.19407            12.24690            12.21660            11.85925            11.84215            13.33040            12.90500            12.96831            12.59086            13.44509            13.00406            13.34499            13.08699            12.85682            12.71069            12.25847            12.89206            12.75677            12.78674            13.19417            13.23896            12.64102            13.18805            13.07449            12.85252            12.80105            13.05548            13.25396            12.94864            13.32495            12.89329            12.86942            13.05034            13.33761            13.53792            13.31527            13.44206            12.90599            13.50770            13.24484            13.00913            13.45405            12.73359            13.32663            12.23328            13.30516            13.18311            12.90762            12.26062            12.23525            13.41236            12.69226            12.88848            12.66522            12.88102            13.32617            13.52125            13.25415            13.44178            13.43994            12.00944            12.68319            12.94228            12.58406            12.81288            12.42215            13.19508            12.61726            13.47162            13.41944            12.64289            12.60282            13.06258            13.35579            12.80537            13.15140            13.19841            12.62244            12.43351            13.19178            13.26501            12.02730            12.94101            12.43374            13.26859            13.28172            12.97587            12.50565            13.48482            13.41458            12.68900            12.16085            12.25701            12.85513            13.18797            13.29863            12.91566            13.45579            12.75068            13.35514            11.87203            12.65319            13.52557            13.15028            13.01340            13.13578            13.18229            13.14142            12.86389            13.23674            12.69735            13.06624            13.15100            12.74185            13.53069            12.15568            13.44901            13.11128            12.89614            12.81047            12.95596            13.00974            12.95967            13.39002            13.09873            12.77130            11.84550            13.06608            13.13345            13.25156            13.14843            12.93413            13.43336            12.91301            13.07594            13.36567            13.06972            13.53187            12.67120            12.66795            13.23717            12.84360            12.85546            12.63521            12.83705            13.45608            12.86874            12.57717            13.14071            12.10545            13.37117            13.41209            12.68536            13.42699            12.56975            13.17152            13.24125            13.33165            13.28157            13.08234            12.60969            12.72231            12.50669            12.12137            13.25734            12.82980            12.09843            12.86475            12.84807            13.06461            13.53441            13.39536            13.51604            13.26980            13.11378            12.89871            13.46011            13.20188            12.90531            13.50710            13.16608            13.16719            12.95874            12.85797            12.65591            13.05377            12.55821            13.26500            13.16205            13.26648            13.38592            13.54516            12.96734            13.30231            13.32321            13.18668            12.84169            13.45623            13.04449            12.92250            12.81750            13.42392            13.19739            13.01690            13.17579            12.81198            13.01935            13.13931            13.03857            13.09757            13.19852            13.04871            13.41697            12.10004            12.58962            13.49853            12.85412            12.63893            13.35312            13.16969            12.99212            13.36084            13.19652            13.41282            12.87478            13.09759            12.84757            13.06596            13.10297            13.35045            13.08925            12.82157            13.39710            13.34878            13.24364            12.86291            13.08741            12.08491            12.84877            13.19624            13.07237            13.00169            13.10147            12.81417            12.84019            12.79078            12.37388            13.09234            13.19014            12.83996            12.61084            13.24998            12.68982            13.56688            12.67791            12.91440            12.80582            13.01942            13.00448            12.53664            12.68683            12.84112            12.89412            12.79798            12.89903            12.10005            12.88181            12.62659            12.03762            12.83996            13.20287            12.69249            11.99816            13.04710            12.64465            13.43902            12.66613            12.67054            12.69885            12.83570            13.30608            13.16646            13.11304            12.80364            13.23192            12.66033            12.95131            12.23831            12.24716            12.68836            13.07518            12.93590            13.20808            12.85660            13.51194            13.03756            12.57869            12.84095            12.69554            12.83275            13.09734            11.99966            12.62804            13.48040            12.68875            12.86887            12.73483            13.60307            13.03720            13.51498            13.52485            12.88831            13.56643            13.23751            12.68864            12.71493            12.88984            12.91693            13.27477            13.12914            12.72784            12.89962            12.77649            13.18247            12.99918            12.59708            13.39017            13.07702            12.86775            12.93445            13.20349            11.99651            12.75728            13.09560            13.40754            13.27456            12.08518            13.20580            12.86759            13.07037            13.36475            13.04488            13.13992            13.28474            13.21753            12.67719            13.57641            13.37027            12.69011            13.02986            12.89048            12.83745            13.22952            13.08116            12.78254            13.05718            13.22801            12.87059            12.95183            12.72140            11.98960            12.76512            13.17015            13.06030            13.23332            12.97447            13.19407            12.83411            12.78252            12.79120            13.06461            13.13116            12.70921            13.53024            13.50194            12.82328            13.05056            12.91954            13.14887            12.72445            13.42223            13.18915            11.95324            11.99439            12.20769            13.50036            12.77669            12.63695            13.25596            13.25818            12.97416            12.69818            13.03174            12.74377            12.83682            13.25539            12.12681            13.47685            12.22831            13.13142            12.67529            13.25860            13.40198            12.70924            13.08179            12.80317            12.81561            12.98463            12.85042            13.40356            13.05351            13.44953            12.79422            13.49531            13.11072            12.12071            13.10500            13.52668            12.79530            13.00999            12.86698            11.80996            13.42649            12.69836            13.44450            12.58726            12.98594            13.50927            13.53213            11.83361            12.98800            13.11704            13.16679            12.77244            12.00626            13.36820            13.54375            13.47644            12.85128            13.31307            13.37320            12.04805            12.84294            13.28570            12.02512            13.38475            13.07844            12.73443            13.41455            13.30633            13.20336            13.03889            13.18739            12.92520            13.14106            12.30563            13.42717            12.88999            13.52399            13.21712            12.79940            12.17730            12.72352            13.44003            13.14035            12.99938            12.93210            13.07932            12.96288            12.78339            13.19615            12.87399            13.31415            13.26009            13.18323            12.78737            12.76645            13.09141            13.33974            13.31975            12.68561            13.26010            12.31507            13.47922            13.07498            13.18959            12.65315            13.15678            13.11011            13.24125            11.90053            13.30800            13.12385            12.76496            13.51889            12.89730            12.82666            12.63601            13.30978            13.20740            13.41872            13.25002            13.04234            12.02121            12.89522            12.76953            13.07706            13.12942            12.92039            13.01866            13.17291            13.27907            13.06260            12.82093            13.42276            12.44132            13.31262            13.43240            12.73781            13.45407            12.86459            13.26082            13.18964            12.32964            13.09707            13.11907            13.07258            13.05776            13.31893            12.92277            12.14564            12.17785            13.01099            13.30790            13.25975            12.71437            12.83908            13.28373            12.83517            12.60389            12.90091            13.05307            12.31384            13.43555            13.06945            12.86612            12.85216            12.88778            13.33987            12.36864            12.89407            12.57778            13.19048            12.98704            13.05103            13.15843            13.36363            13.50903            12.83890            13.30522            12.70258            13.32606            13.00507            12.90482            13.13781            12.90422            12.83729            12.82314            12.64998            13.41273            13.10121            13.20378            12.85306            13.42519            12.83869            12.99130            13.06900            12.25144            12.83884            13.57557            12.46984            13.23533            13.38324            12.91491            11.95117            13.25841            12.96508            12.79966            12.61770            12.89892            13.01947            12.79731            12.76973            13.06889            13.33441            12.96677            12.10098            13.22979            12.89423            12.89441            12.26255            12.69778            12.89362            12.60586            12.96227            12.82274            13.47060            13.42192            12.33709            13.15051            12.90407            13.21492            12.16862            13.21473            12.63460            12.80596            11.89023            12.63314            13.42533            13.14019            13.29389            13.43197            13.19196            12.73469            13.46586            13.15513            13.48024            12.79471            12.46060            13.57862            13.25968            12.76036            13.22561            13.23778            13.33482            12.80369            13.14480            12.68890            12.74020            12.08250            13.47292            13.17237            13.36816            13.42201            12.68076            12.23939            12.83152            13.15515            12.82718            13.23728            12.83659            12.90291            12.73550            12.72564            13.05399            13.29822            12.79275            12.74700            12.07840            13.31282            13.02199            13.20861            13.18619            12.58864            12.89920            13.34720            13.45790            12.84529            12.77072            13.23844            13.19804            13.01528            13.35783            13.27835            12.57580            13.28790            13.31209            13.13218            12.45660            12.98616            12.07532            13.32279            13.06660            12.08980            13.19683            12.94181            13.10192            13.28131            13.10282            12.82137            13.39515            13.21050            13.23361            12.70622            13.53191            12.66295            13.38526            13.22184            12.69380            12.80673            12.52273            12.87544            13.17603            12.66621            12.85785            12.06762            13.14092            13.19615            13.24115            12.82425            12.09095            13.06484            12.09209            12.92530            13.40328            13.48133            13.08589            13.27129            13.55382            12.43954            13.43234            13.22682            13.25196            13.31335            12.94070            12.12973            12.85787            13.14018            13.21776            13.10442            13.42960            13.49191            13.31818            12.79744            11.98027            13.23228            12.70897            13.42184            12.85381            12.40960            12.80457            13.01329            13.21192            12.94627            12.82108            12.84260            13.31821            12.88146            13.06068            13.34157            12.84338            12.65199            13.01329            12.15320            13.15407            12.88598            13.25876            13.45342            13.11110            12.69457            13.57133            13.42967            12.82099            13.10701            12.78052            12.25888            13.11835            13.11545            13.55061            12.79393            13.44994            12.79689            12.79707            13.16309            12.37119            12.71578            13.45556            12.71872            12.83832            13.40960            13.08752            12.89728            13.39338            13.18308            13.19895            13.44243            13.08638            12.70748            13.45708            12.89430            13.12082            13.18641            12.92474            13.53490            13.05446            13.41192            13.31369            13.15454            12.79486            12.68548            13.37893            12.61613            13.29582            13.09233            12.61447            12.94123            11.80838            12.83073            13.25013            13.14794            13.25990            13.44116            13.23763            12.79333            13.26090            13.44802            12.86196            13.40659            12.70474            13.06564            13.28024            12.70122            12.80625            12.91697            12.81728            13.01532            13.46600            12.69070            13.57217            13.39527            13.52379            13.20974            13.07196            12.75961            12.61289            13.23430            13.27554            13.25055            13.00351            13.26397            12.72798            13.08765            13.07278            12.51114            13.34452            13.30685            12.51826            13.19338            13.40567            13.26755            12.78204            12.95588            12.65545            13.40388            13.36753            13.08248            13.06324            13.00056            13.22820            13.06428            13.45108            13.52216            13.46652            12.96722            12.86127            12.09620            13.01700            12.93052            13.22998            13.18398            13.43447            12.88662            12.87785            12.09890            13.44717            12.50797            13.16039            12.88203            12.76604            13.25868            13.24430            13.18012            12.82545            13.10219            12.83523            13.34054            12.91575            13.24252            13.36247            12.66547            13.40227            13.07484            13.16056            13.38802            12.76635            12.83356            13.38463            13.18636            13.04464            13.29679            12.19466            12.87152            12.61565            13.05048            13.29039            13.14888            12.80065            12.87693            12.57616            12.09855            13.13917            12.85625            12.80598            13.10781            12.77432            13.26979            13.09041            13.44921            12.91403            13.26299            11.86461            13.08062            11.89298            12.83629            12.90921            13.08684            12.73499            13.48680            13.34024            12.52526            12.96695            12.70219            12.24561            13.45097            12.16405            13.19541            13.27522            12.94154            12.81602            13.41528            13.22116            13.18677            13.03127            12.83061            12.12547            13.05728            12.73439            13.48177            13.34322            13.13400            13.07818            13.16581            12.89353            12.67371            13.13985            13.37990            13.50554            12.83856            12.63072            12.69058            13.24665            13.42637            13.07662            13.05954            12.75703            12.63034            13.08678            13.46833            12.67535            12.77416            13.09243            12.89651            13.26261            13.06856            13.05735            12.78427            12.88239            13.13915            12.90368            13.05756            13.21760            12.69903            12.09867            13.39546            13.25946            12.18461            12.89237  