# vtk DataFile Version 3.0
Output from R3t
ASCII
DATASET UNSTRUCTURED_GRID
POINTS       8652 double
      0.50000000E-01     -0.50000000E-02      0.48500000E+00
      0.10000000E+00     -0.50000000E-02      0.48500000E+00
      0.15000000E+00     -0.50000000E-02      0.48500000E+00
      0.20000000E+00     -0.50000000E-02      0.48500000E+00
      0.25000000E+00     -0.50000000E-02      0.48500000E+00
      0.30000000E+00     -0.50000000E-02      0.48500000E+00
      0.35000000E+00     -0.50000000E-02      0.48500000E+00
      0.40000000E+00     -0.50000000E-02      0.48500000E+00
      0.50000000E-01      0.00000000E+00      0.42500000E+00
      0.10000000E+00      0.00000000E+00      0.42500000E+00
      0.15000000E+00      0.00000000E+00      0.42500000E+00
      0.20000000E+00      0.00000000E+00      0.42500000E+00
      0.25000000E+00      0.00000000E+00      0.42500000E+00
      0.30000000E+00      0.00000000E+00      0.42500000E+00
      0.35000000E+00      0.00000000E+00      0.42500000E+00
      0.40000000E+00      0.00000000E+00      0.42500000E+00
      0.50000000E-01      0.00000000E+00      0.37500000E+00
      0.10000000E+00      0.00000000E+00      0.37500000E+00
      0.15000000E+00      0.00000000E+00      0.37500000E+00
      0.20000000E+00      0.00000000E+00      0.37500000E+00
      0.25000000E+00      0.00000000E+00      0.37500000E+00
      0.30000000E+00      0.00000000E+00      0.37500000E+00
      0.35000000E+00      0.00000000E+00      0.37500000E+00
      0.40000000E+00      0.00000000E+00      0.37500000E+00
      0.50000000E-01      0.00000000E+00      0.32500000E+00
      0.10000000E+00      0.00000000E+00      0.32500000E+00
      0.15000000E+00      0.00000000E+00      0.32500000E+00
      0.20000000E+00      0.00000000E+00      0.32500000E+00
      0.25000000E+00      0.00000000E+00      0.32500000E+00
      0.30000000E+00      0.00000000E+00      0.32500000E+00
      0.35000000E+00      0.00000000E+00      0.32500000E+00
      0.40000000E+00      0.00000000E+00      0.32500000E+00
      0.50000000E-01      0.00000000E+00      0.27500000E+00
      0.10000000E+00      0.00000000E+00      0.27500000E+00
      0.15000000E+00      0.00000000E+00      0.27500000E+00
      0.20000000E+00      0.00000000E+00      0.27500000E+00
      0.25000000E+00      0.00000000E+00      0.27500000E+00
      0.30000000E+00      0.00000000E+00      0.27500000E+00
      0.35000000E+00      0.00000000E+00      0.27500000E+00
      0.40000000E+00      0.00000000E+00      0.27500000E+00
      0.50000000E-01      0.00000000E+00      0.22500000E+00
      0.10000000E+00      0.00000000E+00      0.22500000E+00
      0.15000000E+00      0.00000000E+00      0.22500000E+00
      0.20000000E+00      0.00000000E+00      0.22500000E+00
      0.25000000E+00      0.00000000E+00      0.22500000E+00
      0.30000000E+00      0.00000000E+00      0.22500000E+00
      0.35000000E+00      0.00000000E+00      0.22500000E+00
      0.40000000E+00      0.00000000E+00      0.22500000E+00
      0.50000000E-01      0.00000000E+00      0.17500000E+00
      0.10000000E+00      0.00000000E+00      0.17500000E+00
      0.15000000E+00      0.00000000E+00      0.17500000E+00
      0.20000000E+00      0.00000000E+00      0.17500000E+00
      0.50000000E-01      0.00000000E+00      0.12500000E+00
      0.10000000E+00      0.00000000E+00      0.12500000E+00
      0.15000000E+00      0.00000000E+00      0.12500000E+00
      0.20000000E+00      0.00000000E+00      0.12500000E+00
      0.25000000E+00      0.00000000E+00      0.12500000E+00
      0.30000000E+00      0.00000000E+00      0.12500000E+00
      0.35000000E+00      0.00000000E+00      0.12500000E+00
      0.40000000E+00      0.00000000E+00      0.12500000E+00
      0.50000000E-01      0.00000000E+00      0.75000000E-01
      0.10000000E+00      0.00000000E+00      0.75000000E-01
      0.15000000E+00      0.00000000E+00      0.75000000E-01
      0.20000000E+00      0.00000000E+00      0.75000000E-01
      0.25000000E+00      0.00000000E+00      0.75000000E-01
      0.30000000E+00      0.00000000E+00      0.75000000E-01
      0.35000000E+00      0.00000000E+00      0.75000000E-01
      0.40000000E+00      0.00000000E+00      0.75000000E-01
      0.00000000E+00      0.00000000E+00      0.00000000E+00
      0.45000000E+00      0.00000000E+00      0.00000000E+00
      0.00000000E+00      0.00000000E+00      0.50000000E+00
      0.45000000E+00      0.00000000E+00      0.50000000E+00
      0.00000000E+00     -0.30000000E-01      0.00000000E+00
      0.45000000E+00     -0.30000000E-01      0.00000000E+00
      0.00000000E+00     -0.30000000E-01      0.50000000E+00
      0.45000000E+00     -0.30000000E-01      0.50000000E+00
      0.00000000E+00     -0.30000000E-01      0.10000000E-01
      0.00000000E+00     -0.30000000E-01      0.20000000E-01
      0.00000000E+00     -0.30000000E-01      0.30000000E-01
      0.00000000E+00     -0.30000000E-01      0.40000000E-01
      0.00000000E+00     -0.30000000E-01      0.50000000E-01
      0.00000000E+00     -0.30000000E-01      0.60000000E-01
      0.00000000E+00     -0.30000000E-01      0.70000000E-01
      0.00000000E+00     -0.30000000E-01      0.80000000E-01
      0.00000000E+00     -0.30000000E-01      0.90000000E-01
      0.00000000E+00     -0.30000000E-01      0.10000000E+00
      0.00000000E+00     -0.30000000E-01      0.11000000E+00
      0.00000000E+00     -0.30000000E-01      0.12000000E+00
      0.00000000E+00     -0.30000000E-01      0.13000000E+00
      0.00000000E+00     -0.30000000E-01      0.14000000E+00
      0.00000000E+00     -0.30000000E-01      0.15000000E+00
      0.00000000E+00     -0.30000000E-01      0.16000000E+00
      0.00000000E+00     -0.30000000E-01      0.17000000E+00
      0.00000000E+00     -0.30000000E-01      0.18000000E+00
      0.00000000E+00     -0.30000000E-01      0.19000000E+00
      0.00000000E+00     -0.30000000E-01      0.20000000E+00
      0.00000000E+00     -0.30000000E-01      0.21000000E+00
      0.00000000E+00     -0.30000000E-01      0.22000000E+00
      0.00000000E+00     -0.30000000E-01      0.23000000E+00
      0.00000000E+00     -0.30000000E-01      0.24000000E+00
      0.00000000E+00     -0.30000000E-01      0.25000000E+00
      0.00000000E+00     -0.30000000E-01      0.26000000E+00
      0.00000000E+00     -0.30000000E-01      0.27000000E+00
      0.00000000E+00     -0.30000000E-01      0.28000000E+00
      0.00000000E+00     -0.30000000E-01      0.29000000E+00
      0.00000000E+00     -0.30000000E-01      0.30000000E+00
      0.00000000E+00     -0.30000000E-01      0.31000000E+00
      0.00000000E+00     -0.30000000E-01      0.32000000E+00
      0.00000000E+00     -0.30000000E-01      0.33000000E+00
      0.00000000E+00     -0.30000000E-01      0.34000000E+00
      0.00000000E+00     -0.30000000E-01      0.35000000E+00
      0.00000000E+00     -0.30000000E-01      0.36000000E+00
      0.00000000E+00     -0.30000000E-01      0.37000000E+00
      0.00000000E+00     -0.30000000E-01      0.38000000E+00
      0.00000000E+00     -0.30000000E-01      0.39000000E+00
      0.00000000E+00     -0.30000000E-01      0.40000000E+00
      0.00000000E+00     -0.30000000E-01      0.41000000E+00
      0.00000000E+00     -0.30000000E-01      0.42000000E+00
      0.00000000E+00     -0.30000000E-01      0.43000000E+00
      0.00000000E+00     -0.30000000E-01      0.44000000E+00
      0.00000000E+00     -0.30000000E-01      0.45000000E+00
      0.00000000E+00     -0.30000000E-01      0.46000000E+00
      0.00000000E+00     -0.30000000E-01      0.47000000E+00
      0.00000000E+00     -0.30000000E-01      0.48000000E+00
      0.00000000E+00     -0.30000000E-01      0.49000000E+00
      0.10000000E-01     -0.30000000E-01      0.50000000E+00
      0.20000000E-01     -0.30000000E-01      0.50000000E+00
      0.30000000E-01     -0.30000000E-01      0.50000000E+00
      0.40000000E-01     -0.30000000E-01      0.50000000E+00
      0.50000000E-01     -0.30000000E-01      0.50000000E+00
      0.60000000E-01     -0.30000000E-01      0.50000000E+00
      0.70000000E-01     -0.30000000E-01      0.50000000E+00
      0.80000000E-01     -0.30000000E-01      0.50000000E+00
      0.90000000E-01     -0.30000000E-01      0.50000000E+00
      0.10000000E+00     -0.30000000E-01      0.50000000E+00
      0.11000000E+00     -0.30000000E-01      0.50000000E+00
      0.12000000E+00     -0.30000000E-01      0.50000000E+00
      0.13000000E+00     -0.30000000E-01      0.50000000E+00
      0.14000000E+00     -0.30000000E-01      0.50000000E+00
      0.15000000E+00     -0.30000000E-01      0.50000000E+00
      0.16000000E+00     -0.30000000E-01      0.50000000E+00
      0.17000000E+00     -0.30000000E-01      0.50000000E+00
      0.18000000E+00     -0.30000000E-01      0.50000000E+00
      0.19000000E+00     -0.30000000E-01      0.50000000E+00
      0.20000000E+00     -0.30000000E-01      0.50000000E+00
      0.21000000E+00     -0.30000000E-01      0.50000000E+00
      0.22000000E+00     -0.30000000E-01      0.50000000E+00
      0.23000000E+00     -0.30000000E-01      0.50000000E+00
      0.24000000E+00     -0.30000000E-01      0.50000000E+00
      0.25000000E+00     -0.30000000E-01      0.50000000E+00
      0.26000000E+00     -0.30000000E-01      0.50000000E+00
      0.27000000E+00     -0.30000000E-01      0.50000000E+00
      0.28000000E+00     -0.30000000E-01      0.50000000E+00
      0.29000000E+00     -0.30000000E-01      0.50000000E+00
      0.30000000E+00     -0.30000000E-01      0.50000000E+00
      0.31000000E+00     -0.30000000E-01      0.50000000E+00
      0.32000000E+00     -0.30000000E-01      0.50000000E+00
      0.33000000E+00     -0.30000000E-01      0.50000000E+00
      0.34000000E+00     -0.30000000E-01      0.50000000E+00
      0.35000000E+00     -0.30000000E-01      0.50000000E+00
      0.36000000E+00     -0.30000000E-01      0.50000000E+00
      0.37000000E+00     -0.30000000E-01      0.50000000E+00
[...]
POINT_DATA      8652
CELL_DATA     32557
SCALARS Resistivity(ohm.m) double 1
LOOKUP_TABLE default
            12.32157            12.92970            12.35022            12.76782            12.62709            11.94921            13.08350            12.39794            12.70264            12.04542            12.04031            11.80567            11.82922            12.85647            12.58681            12.45149            12.26657            12.94701            12.72632            12.98108            12.74574            12.61969            12.35812            12.03734            12.53220            12.53034            12.37017            12.75387            12.84998            12.33828            12.70391            12.67934            12.62283            12.42426            12.71324            12.87420            12.45756            12.89328            12.64004            12.37313            12.75206            12.97418            13.07265            12.85959            13.04750            12.37071            12.95945            12.83822            12.64303            12.96338            12.34087            12.89433            11.94468            12.80042            12.82627            12.60604            11.96083            12.03377            12.93144            12.29295            12.32686            12.36020            12.58073            12.92013            12.96920            12.78162            13.05870            12.95982            11.89988            12.25447            12.62114            12.25617            12.51775            12.03815            12.80675            12.21812            12.98526            12.94693            12.32325            12.25129            12.73439            12.83498            12.41660            12.68846            12.70741            12.21854            12.16417            12.80850            12.79299            11.85128            12.66502            12.04895            12.86527            12.88793            12.67553            12.10048            12.96214            13.00396            12.30088            11.98682            12.06174            12.40808            12.75854            12.80265            12.36912            12.92653            12.51532            12.95950            11.84103            12.28450            12.97501            12.61969            12.59538            12.60867            12.82777            12.68126            12.62447            12.84854            12.31185            12.69832            12.76106            12.50604            13.10710            11.98651            12.96662            12.74759            12.35607            12.38398            12.65123            12.66090            12.66476            12.90738            12.64240            12.35702            11.77997            12.66651            12.76242            12.78731            12.63822            12.39104            12.94076            12.33569            12.74333            12.87653            12.69358            12.98041            12.26925            12.28585            12.74093            12.41825            12.51830            12.32013            12.60361            12.97035            12.37755            12.23807            12.70693            11.94633            12.88573            12.93136            12.28849            12.92006            12.20352            12.79890            12.77862            12.91901            12.85964            12.68342            12.29577            12.34165            12.09756            11.95303            12.84772            12.33254            11.94058            12.61824            12.60552            12.66780            12.93900            12.86101            12.97241            12.89074            12.76187            12.33845            12.95304            12.82772            12.45148            12.93289            12.76601            12.67224            12.66251            12.42148            12.30222            12.64963            12.12227            12.84605            12.77111            12.79141            12.92689            13.07924            12.58037            12.83926            12.92750            12.65956            12.34424            12.94618            12.70329            12.36530            12.43894            12.93390            12.72784            12.66614            12.76034            12.42774            12.69706            12.75762            12.68270            12.74087            12.79536            12.65967            12.91003            11.94334            12.22534            12.96149            12.44340            12.31183            12.90620            12.76033            12.55751            12.89299            12.85743            12.90813            12.36834            12.71121            12.39892            12.65925            12.75021            12.83461            12.74888            12.58528            12.90012            12.98339            12.72192            12.40765            12.67985            11.91115            12.38388            12.76070            12.74072            12.63965            12.79321            12.43744            12.54536            12.58884            12.14843            12.74481            12.75715            12.61317            12.25200            12.71835            12.31681            13.09927            12.28820            12.62773            12.34412            12.66586            12.69631            12.18410            12.29543            12.40953            12.47281            12.53196            12.64233            11.94003            12.54572            12.31750            11.84404            12.33155            12.77119            12.26942            11.88211            12.62064            12.25761            13.02136            12.35103            12.23088            12.27472            12.53979            12.80154            12.79423            12.74877            12.49004            12.70310            12.25813            12.65683            12.05526            12.04548            12.29525            12.67168            12.61808            12.70060            12.51582            12.96343            12.69219            12.23888            12.40125            12.29676            12.40737            12.75502            11.82596            12.31889            12.96048            12.28986            12.37929            12.28601            12.96989            12.66977            13.09829            13.00467            12.33837            12.95212            12.88798            12.25528            12.40455            12.36656            12.63240            12.87938            12.71329            12.30391            12.36088            12.54497            12.69536            12.66039            12.18315            12.92113            12.73865            12.35735            12.62091            12.79489            11.85076            12.53715            12.57918            12.95511            12.79246            11.87585            12.75161            12.31789            12.76838            13.01265            12.69220            12.71006            12.87697            12.76303            12.36337            13.08139            12.91209            12.26708            12.70474            12.55104            12.39983            12.82372            12.72680            12.28861            12.67000            12.83428            12.32438            12.52890            12.26644            11.83272            12.38655            12.79368            12.65994            12.70422            12.67549            12.80999            12.59274            12.36732            12.41826            12.73604            12.70746            12.41179            13.08951            12.95716            12.39969            12.62761            12.61143            12.70931            12.23237            12.94777            12.75544            11.87860            11.82728            12.03594            12.99793            12.40070            12.32244            12.81783            12.79111            12.65108            12.27823            12.65472            12.31644            12.38165            12.71158            11.96588            12.95934            12.02477            12.76137            12.27448            12.80030            12.90480            12.40289            12.69221            12.42309            12.38951            12.63381            12.51653            12.93943            12.63371            12.93298            12.37597            12.96512            12.61556            11.96213            12.74397            13.10388            12.47357            12.63920            12.38040            11.81597            12.93335            12.25833            12.95927            12.17975            12.66722            13.05682            13.00614            11.77903            12.63540            12.63968            12.63173            12.43622            11.83184            13.01285            13.07174            12.98359            12.62076            12.86339            12.88213            11.84961            12.31082            12.87677            11.83882            12.92226            12.74133            12.31755            12.90911            12.80534            12.82396            12.59623            12.70617            12.66568            12.76806            11.98650            12.95379            12.35402            13.10023            12.74127            12.44326            12.00051            12.33273            12.95922            12.61154            12.66654            12.62083            12.72328            12.69640            12.57142            12.81549            12.38475            12.79981            12.86829            12.78535            12.57826            12.44002            12.70822            12.87878            12.80895            12.24017            12.81273            12.08196            12.97297            12.74187            12.75500            12.34540            12.69125            12.71440            12.84527            11.81390            12.89170            12.71918            12.52856            12.97261            12.37529            12.36226            12.24191            12.97245            12.82115            12.91248            12.79235            12.68717            11.85866            12.42433            12.41015            12.64330            12.64586            12.63443            12.70614            12.77594            12.88578            12.59793            12.57358            12.93386            12.19503            12.80163            12.90870            12.31916            12.97549            12.38071            12.81708            12.72459            12.12103            12.71164            12.75933            12.64780            12.66964            12.81164            12.66507            11.90869            11.98568            12.68806            12.84329            12.80670            12.28748            12.36423            12.82311            12.38709            12.25077            12.37430            12.64835            12.11021            12.94096            12.72497            12.33552            12.34144            12.41919            12.95344            12.14250            12.43616            12.25326            12.78323            12.65924            12.66073            12.80193            12.89696            12.96143            12.54518            12.83742            12.34689            12.93881            12.66816            12.37222            12.77059            12.58730            12.41404            12.42554            12.34911            12.90914            12.71073            12.71407            12.51700            12.93508            12.41420            12.67323            12.48855            12.03408            12.41228            13.08382            12.20928            12.75849            12.93312            12.61110            11.83434            12.86897            12.64221            12.42152            12.23738            12.37479            12.64593            12.42823            12.53539            12.67679            12.81987            12.44930            11.94456            12.76097            12.60029            12.36518            12.07201            12.38623            12.33840            12.30459            12.64059            12.42548            12.98206            12.92968            12.02814            12.72294            12.37264            12.82358            11.99704            12.74556            12.33078            12.42542            11.80027            12.25360            12.92724            12.61346            12.83043            12.96587            12.80014            12.29501            12.97545            12.76214            12.94756            12.46739            12.18048            13.08409            12.84366            12.24874            12.80661            12.76115            12.88997            12.33334            12.78747            12.30944            12.31471            11.93561            12.96793            12.67392            13.01368            12.91324            12.28798            12.02973            12.58915            12.68290            12.35897            12.77155            12.59620            12.37319            12.49575            12.31347            12.76237            12.84783            12.47091            12.32150            11.87186            12.97523            12.66320            12.71716            12.71856            12.26950            12.35809            12.90328            12.94628            12.41596            12.44864            12.78235            12.81289            12.57347            12.91877            12.83425            12.11687            12.90164            12.85053            12.71759            12.16674            12.69080            11.86902            12.98401            12.73483            11.88123            12.80800            12.52081            12.66564            12.86589            12.74680            12.42620            12.89819            12.82952            12.71153            12.26121            12.98456            12.27158            12.85988            12.68116            12.35940            12.56783            12.09174            12.53917            12.78346            12.35196            12.56929            11.86305            12.75214            12.77095            12.78456            12.42469            11.88093            12.67968            11.92119            12.65706            12.90220            12.94411            12.67870            12.82572            13.09597            12.18711            12.94062            12.81727            12.72982            12.88990            12.44107            11.95869            12.52321            12.80158            12.77790            12.70939            12.93886            12.98019            12.81043            12.44556            11.88905            12.74501            12.33010            12.91295            12.41678            12.17310            12.41470            12.51614            12.69986            12.62332            12.33892            12.39859            12.81614            12.65435            12.66292            12.93930            12.50871            12.34327            12.66744            11.95043            12.81560            12.32738            12.86183            12.97747            12.76913            12.30297            12.95577            12.95283            12.35869            12.65203            12.33392            11.96752            12.74875            12.74936            12.94860            12.47069            12.94834            12.39435            12.44664            12.76792            12.08633            12.26572            12.97677            12.28563            12.36444            12.93030            12.61929            12.35309            13.00288            12.80892            12.75315            12.96638            12.62144            12.48739            12.95205            12.31160            12.64954            12.71962            12.60394            13.00714            12.64447            12.88855            12.90481            12.71971            12.47201            12.26705            12.90646            12.31345            12.83638            12.62158            12.28276            12.52209            11.81504            12.50511            12.84966            12.70390            12.85542            12.94507            12.84293            12.57820            12.77278            12.94807            12.33070            12.94023            12.34298            12.61080            12.80762            12.27104            12.51210            12.59428            12.58247            12.71995            13.02317            12.34771            12.95292            12.93427            12.97111            12.75116            12.67880            12.52547            12.25156            12.70793            12.83501            12.85427            12.62646            12.84053            12.31481            12.66295            12.63594            12.23753            12.90188            12.96831            12.24411            12.81826            12.92461            12.83698            12.34227            12.65003            12.26579            12.93374            12.88131            12.61412            12.53801            12.63945            12.83307            12.69099            12.98880            12.96926            12.97839            12.54319            12.41468            11.89307            12.66492            12.63762            12.86147            12.84730            12.96094            12.54708            12.56459            11.94245            12.94730            12.23449            12.79155            12.37029            12.48431            12.83463            12.72106            12.75922            12.60253            12.74280            12.54123            12.87916            12.62445            12.69301            12.91999            12.28875            12.90050            12.71366            12.65104            12.94509            12.54083            12.41216            13.02344            12.71553            12.71745            12.85724            12.00012            12.38309            12.26285            12.47236            12.83091            12.63976            12.35365            12.57493            12.23635            11.94153            12.74723            12.40509            12.57814            12.68178            12.52885            12.84334            12.68506            13.06371            12.47523            12.86371            11.81352            12.72529            11.85329            12.40320            12.62651            12.67728            12.26490            13.07998            12.86384            12.24756            12.62631            12.26039            11.95480            13.05499            11.97857            12.80909            12.81562            12.47495            12.28524            12.91471            12.72645            12.67021            12.71361            12.40499            11.95818            12.66812            12.51557            12.90567            12.90125            12.65401            12.68506            12.63255            12.36669            12.36100            12.78452            12.90128            12.96678            12.39578            12.26837            12.32906            12.85808            13.03791            12.74155            12.72892            12.32645            12.25838            12.69395            12.95737            12.28681            12.39141            12.75472            12.33782            12.79226            12.67530            12.67104            12.55918            12.58391            12.78126            12.37286            12.67123            12.80426            12.47597            11.89385            12.91703            12.78435            12.01474            12.36752  