# vtk DataFile Version 3.0
Output from R3t
ASCII
DATASET UNSTRUCTURED_GRID
POINTS       8652 double
      0.50000000E-01     -0.50000000E-02      0.48500000E+00
      0.10000000E+00     -0.50000000E-02      0.48500000E+00
      0.15000000E+00     -0.50000000E-02      0.48500000E+00
      0.20000000E+00     -0.50000000E-02      0.48500000E+00
      0.25000000E+00     -0.50000000E-02      0.48500000E+00
      0.30000000E+00     -0.50000000E-02      0.48500000E+00
      0.35000000E+00     -0.50000000E-02      0.48500000E+00
      0.40000000E+00     -0.50000000E-02      0.48500000E+00
      0.50000000E-01      0.00000000E+00      0.42500000E+00
      0.10000000E+00      0.00000000E+00      0.42500000E+00
      0.15000000E+00      0.00000000E+00      0.42500000E+00
      0.20000000E+00      0.00000000E+00      0.42500000E+00
      0.25000000E+00      0.00000000E+00      0.42500000E+00
      0.30000000E+00      0.00000000E+00      0.42500000E+00
      0.35000000E+00      0.00000000E+00      0.42500000E+00
      0.40000000E+00      0.00000000E+00      0.42500000E+00
      0.50000000E-01      0.00000000E+00      0.37500000E+00
      0.10000000E+00      0.00000000E+00      0.37500000E+00
      0.15000000E+00      0.00000000E+00      0.37500000E+00
      0.20000000E+00      0.00000000E+00      0.37500000E+00
      0.25000000E+00      0.00000000E+00      0.37500000E+00
      0.30000000E+00      0.00000000E+00      0.37500000E+00
      0.35000000E+00      0.00000000E+00      0.37500000E+00
      0.40000000E+00      0.00000000E+00      0.37500000E+00
      0.50000000E-01      0.00000000E+00      0.32500000E+00
      0.10000000E+00      0.00000000E+00      0.32500000E+00
      0.15000000E+00      0.00000000E+00      0.32500000E+00
      0.20000000E+00      0.00000000E+00      0.32500000E+00
      0.25000000E+00      0.00000000E+00      0.32500000E+00
      0.30000000E+00      0.00000000E+00      0.32500000E+00
      0.35000000E+00      0.00000000E+00      0.32500000E+00
      0.40000000E+00      0.00000000E+00      0.32500000E+00
      0.50000000E-01      0.00000000E+00      0.27500000E+00
      0.10000000E+00      0.00000000E+00      0.27500000E+00
      0.15000000E+00      0.00000000E+00      0.27500000E+00
      0.20000000E+00      0.00000000E+00      0.27500000E+00
      0.25000000E+00      0.00000000E+00      0.27500000E+00
      0.30000000E+00      0.00000000E+00      0.27500000E+00
      0.35000000E+00      0.00000000E+00      0.27500000E+00
      0.40000000E+00      0.00000000E+00      0.27500000E+00
      0.50000000E-01      0.00000000E+00      0.22500000E+00
      0.10000000E+00      0.00000000E+00      0.22500000E+00
      0.15000000E+00      0.00000000E+00      0.22500000E+00
      0.20000000E+00      0.00000000E+00      0.22500000E+00
      0.25000000E+00      0.00000000E+00      0.22500000E+00
      0.30000000E+00      0.00000000E+00      0.22500000E+00
      0.35000000E+00      0.00000000E+00      0.22500000E+00
      0.40000000E+00      0.00000000E+00      0.22500000E+00
      0.50000000E-01      0.00000000E+00      0.17500000E+00
      0.10000000E+00      0.00000000E+00      0.17500000E+00
      0.15000000E+00      0.00000000E+00      0.17500000E+00
      0.20000000E+00      0.00000000E+00      0.17500000E+00
      0.50000000E-01      0.00000000E+00      0.12500000E+00
      0.10000000E+00      0.00000000E+00      0.12500000E+00
      0.15000000E+00      0.00000000E+00      0.12500000E+00
      0.20000000E+00      0.00000000E+00      0.12500000E+00
      0.25000000E+00      0.00000000E+00      0.12500000E+00
      0.30000000E+00      0.00000000E+00      0.12500000E+00
      0.35000000E+00      0.00000000E+00      0.12500000E+00
      0.40000000E+00      0.00000000E+00      0.12500000E+00
      0.50000000E-01      0.00000000E+00      0.75000000E-01
      0.10000000E+00      0.00000000E+00      0.75000000E-01
      0.15000000E+00      0.00000000E+00      0.75000000E-01
      0.20000000E+00      0.00000000E+00      0.75000000E-01
      0.25000000E+00      0.00000000E+00      0.75000000E-01
      0.30000000E+00      0.00000000E+00      0.75000000E-01
      0.35000000E+00      0.00000000E+00      0.75000000E-01
      0.40000000E+00      0.00000000E+00      0.75000000E-01
      0.00000000E+00      0.00000000E+00      0.00000000E+00
      0.45000000E+00      0.00000000E+00      0.00000000E+00
      0.00000000E+00      0.00000000E+00      0.50000000E+00
      0.45000000E+00      0.00000000E+00      0.50000000E+00
      0.00000000E+00     -0.30000000E-01      0.00000000E+00
      0.45000000E+00     -0.30000000E-01      0.00000000E+00
      0.00000000E+00     -0.30000000E-01      0.50000000E+00
      0.45000000E+00     -0.30000000E-01      0.50000000E+00
      0.00000000E+00     -0.30000000E-01      0.10000000E-01
      0.00000000E+00     -0.30000000E-01      0.20000000E-01
      0.00000000E+00     -0.30000000E-01      0.30000000E-01
      0.00000000E+00     -0.30000000E-01      0.40000000E-01
      0.00000000E+00     -0.30000000E-01      0.50000000E-01
      0.00000000E+00     -0.30000000E-01      0.60000000E-01
      0.00000000E+00     -0.30000000E-01      0.70000000E-01
      0.00000000E+00     -0.30000000E-01      0.80000000E-01
      0.00000000E+00     -0.30000000E-01      0.90000000E-01
      0.00000000E+00     -0.30000000E-01      0.10000000E+00
      0.00000000E+00     -0.30000000E-01      0.11000000E+00
      0.00000000E+00     -0.30000000E-01      0.12000000E+00
      0.00000000E+00     -0.30000000E-01      0.13000000E+00
      0.00000000E+00     -0.30000000E-01      0.14000000E+00
      0.00000000E+00     -0.30000000E-01      0.15000000E+00
      0.00000000E+00     -0.30000000E-01      0.16000000E+00
      0.00000000E+00     -0.30000000E-01      0.17000000E+00
      0.00000000E+00     -0.30000000E-01      0.18000000E+00
      0.00000000E+00     -0.30000000E-01      0.19000000E+00
      0.00000000E+00     -0.30000000E-01      0.20000000E+00
      0.00000000E+00     -0.30000000E-01      0.21000000E+00
      0.00000000E+00     -0.30000000E-01      0.22000000E+00
      0.00000000E+00     -0.30000000E-01      0.23000000E+00
      0.00000000E+00     -0.30000000E-01      0.24000000E+00
      0.00000000E+00     -0.30000000E-01      0.25000000E+00
      0.00000000E+00     -0.30000000E-01      0.26000000E+00
      0.00000000E+00     -0.30000000E-01      0.27000000E+00
      0.00000000E+00     -0.30000000E-01      0.28000000E+00
      0.00000000E+00     -0.30000000E-01      0.29000000E+00
      0.00000000E+00     -0.30000000E-01      0.30000000E+00
      0.00000000E+00     -0.30000000E-01      0.31000000E+00
      0.00000000E+00     -0.30000000E-01      0.32000000E+00
      0.00000000E+00     -0.30000000E-01      0.33000000E+00
      0.00000000E+00     -0.30000000E-01      0.34000000E+00
      0.00000000E+00     -0.30000000E-01      0.35000000E+00
      0.00000000E+00     -0.30000000E-01      0.36000000E+00
      0.00000000E+00     -0.30000000E-01      0.37000000E+00
      0.00000000E+00     -0.30000000E-01      0.38000000E+00
      0.00000000E+00     -0.30000000E-01      0.39000000E+00
      0.00000000E+00     -0.30000000E-01      0.40000000E+00
      0.00000000E+00     -0.30000000E-01      0.41000000E+00
      0.00000000E+00     -0.30000000E-01      0.42000000E+00
      0.00000000E+00     -0.30000000E-01      0.43000000E+00
      0.00000000E+00     -0.30000000E-01      0.44000000E+00
      0.00000000E+00     -0.30000000E-01      0.45000000E+00
      0.00000000E+00     -0.30000000E-01      0.46000000E+00
      0.00000000E+00     -0.30000000E-01      0.47000000E+00
      0.00000000E+00     -0.30000000E-01      0.48000000E+00
      0.00000000E+00     -0.30000000E-01      0.49000000E+00
      0.10000000E-01     -0.30000000E-01      0.50000000E+00
      0.20000000E-01     -0.30000000E-01      0.50000000E+00
      0.30000000E-01     -0.30000000E-01      0.50000000E+00
      0.40000000E-01     -0.30000000E-01      0.50000000E+00
      0.50000000E-01     -0.30000000E-01      0.50000000E+00
      0.60000000E-01     -0.30000000E-01      0.50000000E+00
      0.70000000E-01     -0.30000000E-01      0.50000000E+00
      0.80000000E-01     -0.30000000E-01      0.50000000E+00
      0.90000000E-01     -0.30000000E-01      0.50000000E+00
      0.10000000E+00     -0.30000000E-01      0.50000000E+00
      0.11000000E+00     -0.30000000E-01      0.50000000E+00
      0.12000000E+00     -0.30000000E-01      0.50000000E+00
      0.13000000E+00     -0.30000000E-01      0.50000000E+00
      0.14000000E+00     -0.30000000E-01      0.50000000E+00
      0.15000000E+00     -0.30000000E-01      0.50000000E+00
      0.16000000E+00     -0.30000000E-01      0.50000000E+00
      0.17000000E+00     -0.30000000E-01      0.50000000E+00
      0.18000000E+00     -0.30000000E-01      0.50000000E+00
      0.19000000E+00     -0.30000000E-01      0.50000000E+00
      0.20000000E+00     -0.30000000E-01      0.50000000E+00
      0.21000000E+00     -0.30000000E-01      0.50000000E+00
      0.22000000E+00     -0.30000000E-01      0.50000000E+00
      0.23000000E+00     -0.30000000E-01      0.50000000E+00
      0.24000000E+00     -0.30000000E-01      0.50000000E+00
      0.25000000E+00     -0.30000000E-01      0.50000000E+00
      0.26000000E+00     -0.30000000E-01      0.50000000E+00
      0.27000000E+00     -0.30000000E-01      0.50000000E+00
      0.28000000E+00     -0.30000000E-01      0.50000000E+00
      0.29000000E+00     -0.30000000E-01      0.50000000E+00
      0.30000000E+00     -0.30000000E-01      0.50000000E+00
      0.31000000E+00     -0.30000000E-01      0.50000000E+00
      0.32000000E+00     -0.30000000E-01      0.50000000E+00
      0.33000000E+00     -0.30000000E-01      0.50000000E+00
      0.34000000E+00     -0.30000000E-01      0.50000000E+00
      0.35000000E+00     -0.30000000E-01      0.50000000E+00
      0.36000000E+00     -0.30000000E-01      0.50000000E+00
      0.37000000E+00     -0.30000000E-01      0.50000000E+00
[...]
POINT_DATA      8652
CELL_DATA     32557
SCALARS Resistivity(ohm.m) double 1
LOOKUP_TABLE default
            11.78833            12.43565            11.81022            12.20676            12.05420            11.30171            12.55954            12.00740            12.13274            11.56788            11.53602            11.08873            11.06968            12.27641            12.07870            11.90737            11.75304            12.51825            12.00435            12.57492            12.06069            11.87925            11.71319            11.57824            11.98247            11.91232            11.96048            12.23933            12.22068            11.69691            12.14512            11.81439            11.87754            12.01631            12.00051            12.35064            11.85064            12.34041            11.89507            12.00388            12.17965            12.57169            12.67406            12.23933            12.66188            12.03214            12.53511            12.44235            12.12035            12.67697            11.59050            12.33419            11.41750            12.32188            12.12401            11.99145            11.44336            11.55425            12.44675            11.80374            11.98900            11.68533            12.04561            12.49929            12.56316            12.22579            12.53375            12.54220            11.21140            11.78729            12.05494            11.73595            12.06416            11.55130            12.34253            11.72478            12.81361            12.76744            11.64359            11.48103            12.03987            12.32267            12.00446            12.08522            12.13692            11.73509            11.73951            12.34095            12.23943            11.23182            11.97437            11.55312            12.27261            12.40918            11.99614            11.60793            12.46740            12.48855            11.84196            11.47680            11.57679            11.83937            12.24934            12.28125            11.84099            12.44901            11.85378            12.60418            11.10059            11.49003            12.61842            12.30997            11.93394            12.29631            12.12282            12.04137            11.87029            12.21698            11.84994            11.80707            12.20308            11.84012            12.62369            11.47215            12.55731            12.14810            12.01084            12.01367            11.98686            12.13682            11.98504            12.31043            11.86352            11.65007            11.05494            12.18244            12.15554            12.33093            11.88995            11.71542            12.35500            11.87518            12.04824            12.32325            11.81522            12.64957            11.73959            11.56644            12.12767            11.78671            12.09660            11.65459            11.56177            12.76536            12.00628            11.75238            12.28002            11.41666            12.35000            12.43830            11.84705            12.44285            11.55526            12.30812            12.31192            12.47160            12.41235            12.05970            11.62872            11.80614            11.60333            11.43277            12.47722            11.60438            11.40886            11.83560            11.79516            12.19243            12.45004            12.36588            12.55048            12.44166            12.12265            12.00053            12.40728            12.36595            12.00277            12.43835            12.21056            12.29229            11.98734            11.84582            11.62922            11.73827            11.61605            12.39970            12.10095            12.34910            12.48816            12.68101            12.06676            12.36274            12.37653            12.34812            11.65769            12.38577            12.01522            11.85640            12.02883            12.33787            12.21045            12.11745            12.23215            12.01533            11.88480            12.18375            12.07707            12.10832            12.12651            12.16055            12.37695            11.41141            11.69399            12.57091            11.93004            11.65256            12.35266            12.22847            12.15669            12.39235            12.07564            12.36691            11.83383            12.15225            11.85003            11.77913            12.16007            12.17735            12.10269            11.87440            12.38114            12.59015            12.08281            11.87165            12.17393            11.27759            11.99600            12.24299            12.04740            12.10630            12.17990            11.87284            12.05838            11.53767            11.68164            11.88439            12.25654            11.62538            11.43441            12.37214            11.76021            12.74317            11.85219            11.96226            11.73262            12.11800            12.00447            11.48166            11.80314            12.01485            12.02258            11.83148            11.89601            11.41028            12.09762            11.63516            11.27877            11.70706            12.20906            11.82143            11.19912            11.99440            11.83619            12.52228            11.69199            11.72251            11.82066            12.06300            12.30183            12.18105            12.18281            12.08446            12.05415            11.76124            11.99449            11.55722            11.56755            11.88678            12.19171            12.01654            12.10301            12.09106            12.53800            12.03052            11.77320            11.85895            11.77911            11.82303            12.09712            11.20922            11.65903            12.46087            11.83652            12.00768            11.82306            12.52183            12.15149            12.59301            12.83498            11.99127            12.48076            12.16994            11.79019            11.75700            12.01463            11.98078            12.37973            12.25493            11.82079            12.01770            11.95531            12.14392            12.12855            11.67502            12.43485            12.10593            11.62032            11.99651            12.19499            11.21057            11.88979            12.26071            12.71810            12.35713            11.36772            12.22354            11.96679            12.18559            12.42609            12.20946            12.18208            12.31616            12.14080            11.69714            12.76358            12.45838            11.80511            11.90111            12.09718            11.74155            12.37945            11.85215            11.87761            11.76543            12.19800            11.96957            12.12856            11.81395            11.19200            11.91909            12.30165            11.76453            12.05438            11.99127            12.35386            11.77982            11.95823            11.98424            12.04115            12.27010            11.75434            12.71698            12.52562            11.73318            11.70241            12.04467            12.27325            11.72914            12.51277            12.25464            11.17064            11.18985            11.52621            12.83839            11.97118            11.65041            12.36007            12.33858            12.10110            11.85529            12.18056            11.82335            11.98568            12.41614            11.44109            12.45871            11.54522            12.16509            11.72556            12.23706            12.35611            11.75088            11.84256            12.01470            11.72169            12.09476            12.10085            12.49489            11.71848            12.47710            11.83894            12.45381            11.79897            11.43474            12.17375            12.62747            12.06687            12.08440            12.00692            11.03208            12.34285            11.79803            12.78386            11.64463            12.08449            12.69590            12.82190            11.04663            12.08487            12.25200            12.32485            11.84027            11.20134            12.41479            12.68320            12.82256            11.89024            12.31229            12.33190            11.29379            11.94014            12.31595            11.23240            12.45514            12.05402            11.77215            12.41162            12.40235            12.36504            12.13721            12.15584            11.87833            12.15228            11.47871            12.79589            12.00468            12.62309            12.18186            12.04179            11.49477            11.86382            12.54264            12.30012            12.08387            12.05777            11.84835            11.92989            11.45188            12.35124            12.01566            12.42108            12.29423            12.17939            11.46427            11.84176            12.26052            12.35199            12.34069            11.72936            12.19679            11.63554            12.66410            12.05046            12.26373            11.69252            12.10971            12.18347            12.22245            11.12174            12.64884            12.19376            11.87541            12.62035            12.02778            11.96649            11.74438            12.48208            12.17163            12.42095            12.32802            12.03906            11.23203            11.87799            11.99222            12.06180            12.26297            11.94885            12.01267            12.18874            12.49193            11.66860            12.06302            12.33653            11.73790            12.41711            12.42053            11.79185            12.78465            12.00558            12.35806            12.18527            11.64017            11.91070            12.20079            12.12725            11.76789            12.24965            11.86636            11.40351            11.48879            11.87024            12.31745            12.20512            11.87243            11.97602            12.23466            11.89272            11.62756            12.03066            11.73490            11.62563            12.35635            12.02167            11.81098            11.80765            11.63100            12.56301            11.68012            11.98776            11.72020            12.29806            12.12182            12.18508            12.07533            12.27138            12.51589            12.05634            12.20704            11.85289            12.35543            12.08511            12.03275            12.12101            12.07670            11.84104            12.02322            11.68907            12.36288            11.92290            12.16916            12.09662            12.61155            11.82046            11.81822            11.80383            11.56930            11.84950            12.74877            11.76594            12.27424            12.50184            11.95248            11.17344            12.28920            12.06463            12.01364            11.72402            12.02890            12.13261            12.02393            11.91515            11.79859            12.29597            11.90534            11.41245            12.15151            11.96634            12.01724            11.58029            11.72925            11.99580            11.68069            12.02720            12.02301            12.81613            12.60543            11.58627            12.16764            12.03232            12.40427            11.48627            12.19372            11.66678            12.01819            11.10230            11.81510            12.46039            12.30124            12.24326            12.75240            12.33014            11.55510            12.76857            12.20275            12.44484            12.05648            11.76173            12.76886            12.44863            11.74606            12.20602            12.22159            12.43148            11.79547            12.27845            11.55473            11.81539            11.28180            12.66346            12.06896            12.42104            12.40999            11.84649            11.55574            11.79747            12.11204            11.68546            12.31366            11.77447            12.03181            11.81705            11.78766            12.10723            12.37304            12.05786            11.91674            11.36039            12.48647            12.11975            12.16726            12.18646            11.73131            12.01494            12.35069            12.38934            11.87069            11.87695            12.31271            12.35050            12.17356            12.50964            12.36900            11.65727            12.44664            12.24098            12.23091            11.75237            11.99709            11.35537            12.49365            12.09616            11.37645            12.17488            12.12216            11.88689            12.42128            12.18843            12.02321            12.37137            12.17702            12.08180            11.80688            12.66564            11.85905            12.36057            12.38115            11.70219            11.76176            11.61794            12.09759            12.29284            11.69285            12.02480            11.34041            12.21881            12.21279            12.31258            12.02279            11.37378            12.23356            11.27794            11.89267            12.40525            12.49850            12.16876            12.30480            12.73391            11.74283            12.35373            12.36840            12.36382            12.36721            11.89572            11.44172            12.09782            11.98266            12.29247            11.92610            12.34923            12.68169            12.32311            12.04597            11.19060            12.14446            11.77701            12.40931            11.76704            11.71252            12.00197            11.82819            12.09093            12.04874            11.62049            12.00488            12.27621            11.84538            11.76847            12.40804            12.10004            11.70076            12.19279            11.45497            12.00618            11.98594            12.24894            12.80525            11.91651            11.81140            12.53620            12.52629            11.67104            11.90076            11.93310            11.47158            12.33452            12.18064            12.51838            12.06420            12.38349            11.97437            11.91015            12.19000            11.66176            11.82480            12.57684            11.86124            11.81868            12.45501            11.79061            12.00922            12.61287            12.26285            12.22771            12.75916            11.79145            11.77079            12.40300            11.85922            11.96774            12.17618            12.05882            12.83801            11.73390            12.32989            12.44672            12.06252            12.06892            11.81083            12.28728            11.67509            12.33328            11.81008            11.62681            12.01222            11.03161            12.10147            12.25520            12.23129            12.26337            12.37057            12.41124            11.46312            12.34547            12.38100            11.81399            12.50596            11.85107            11.71146            12.39141            11.81799            12.06150            12.07769            11.87933            12.15679            12.64334            11.68828            12.48329            12.47394            12.60036            12.21367            11.80695            11.87909            11.44938            12.06543            12.37240            12.43935            12.05164            12.39157            11.90021            12.18660            12.10569            11.79817            12.34361            12.48344            11.80098            12.35015            12.31422            12.24000            11.88693            11.98264            11.74314            12.52960            12.31107            11.76367            11.90981            12.11249            12.38895            11.79909            12.58850            12.57792            12.82523            12.04114            11.73032            11.39203            12.11172            12.01975            12.32535            12.04556            12.54849            12.09316            12.08643            11.41005            12.37973            11.79838            12.25513            12.01162            11.81929            12.38493            12.07777            12.23733            11.55973            12.11121            12.05743            12.25692            11.97505            12.38253            12.51070            11.68310            12.36094            11.83558            11.95679            12.68172            11.88270            12.01321            12.44808            12.11603            12.04877            12.39548            11.50737            12.01257            11.68748            11.77983            12.23559            11.90250            11.95112            12.07543            11.55743            11.40941            12.10125            11.84819            11.95765            12.23644            11.78354            12.39196            12.16969            12.55154            12.01211            12.25382            11.08571            11.85302            11.11234            12.03903            11.92254            12.18325            11.74361            12.56462            12.28394            11.80759            12.05429            11.80580            11.44219            12.66426            11.47562            12.34298            12.28171            11.79354            11.72677            12.43201            12.14629            12.32217            12.02007            11.83889            11.43789            11.76525            11.85957            12.40753            12.34265            12.01209            11.82662            12.32092            12.01756            11.69753            12.09776            12.41201            12.59325            11.85368            11.64211            11.79505            12.26680            12.46505            12.09118            12.17105            11.92224            11.46899            11.85774            12.54596            11.82737            11.81265            12.06073            11.99854            12.33975            11.79752            11.76677            11.95974            12.03086            12.10056            12.03231            11.76871            12.35565            11.74979            11.39213            12.56512            12.22086            11.50370            11.70196  