# vtk DataFile Version 3.0
Output from R3t
ASCII
DATASET UNSTRUCTURED_GRID
POINTS       8652 double
      0.50000000E-01     -0.50000000E-02      0.48500000E+00
      0.10000000E+00     -0.50000000E-02      0.48500000E+00
      0.15000000E+00     -0.50000000E-02      0.48500000E+00
      0.20000000E+00     -0.50000000E-02      0.48500000E+00
      0.25000000E+00     -0.50000000E-02      0.48500000E+00
      0.30000000E+00     -0.50000000E-02      0.48500000E+00
      0.35000000E+00     -0.50000000E-02      0.48500000E+00
      0.40000000E+00     -0.50000000E-02      0.48500000E+00
      0.50000000E-01      0.00000000E+00      0.42500000E+00
      0.10000000E+00      0.00000000E+00      0.42500000E+00
      0.15000000E+00      0.00000000E+00      0.42500000E+00
      0.20000000E+00      0.00000000E+00      0.42500000E+00
      0.25000000E+00      0.00000000E+00      0.42500000E+00
      0.30000000E+00      0.00000000E+00      0.42500000E+00
      0.35000000E+00      0.00000000E+00      0.42500000E+00
      0.40000000E+00      0.00000000E+00      0.42500000E+00
      0.50000000E-01      0.00000000E+00      0.37500000E+00
      0.10000000E+00      0.00000000E+00      0.37500000E+00
      0.15000000E+00      0.00000000E+00      0.37500000E+00
      0.20000000E+00      0.00000000E+00      0.37500000E+00
      0.25000000E+00      0.00000000E+00      0.37500000E+00
      0.30000000E+00      0.00000000E+00      0.37500000E+00
      0.35000000E+00      0.00000000E+00      0.37500000E+00
      0.40000000E+00      0.00000000E+00      0.37500000E+00
      0.50000000E-01      0.00000000E+00      0.32500000E+00
      0.10000000E+00      0.00000000E+00      0.32500000E+00
      0.15000000E+00      0.00000000E+00      0.32500000E+00
      0.20000000E+00      0.00000000E+00      0.32500000E+00
      0.25000000E+00      0.00000000E+00      0.32500000E+00
      0.30000000E+00      0.00000000E+00      0.32500000E+00
      0.35000000E+00      0.00000000E+00      0.32500000E+00
      0.40000000E+00      0.00000000E+00      0.32500000E+00
      0.50000000E-01      0.00000000E+00      0.27500000E+00
      0.10000000E+00      0.00000000E+00      0.27500000E+00
      0.15000000E+00      0.00000000E+00      0.27500000E+00
      0.20000000E+00      0.00000000E+00      0.27500000E+00
      0.25000000E+00      0.00000000E+00      0.27500000E+00
      0.30000000E+00      0.00000000E+00      0.27500000E+00
      0.35000000E+00      0.00000000E+00      0.27500000E+00
      0.40000000E+00      0.00000000E+00      0.27500000E+00
      0.50000000E-01      0.00000000E+00      0.22500000E+00
      0.10000000E+00      0.00000000E+00      0.22500000E+00
      0.15000000E+00      0.00000000E+00      0.22500000E+00
      0.20000000E+00      0.00000000E+00      0.22500000E+00
      0.25000000E+00      0.00000000E+00      0.22500000E+00
      0.30000000E+00      0.00000000E+00      0.22500000E+00
      0.35000000E+00      0.00000000E+00      0.22500000E+00
      0.40000000E+00      0.00000000E+00      0.22500000E+00
      0.50000000E-01      0.00000000E+00      0.17500000E+00
      0.10000000E+00      0.00000000E+00      0.17500000E+00
      0.15000000E+00      0.00000000E+00      0.17500000E+00
      0.20000000E+00      0.00000000E+00      0.17500000E+00
      0.50000000E-01      0.00000000E+00      0.12500000E+00
      0.10000000E+00      0.00000000E+00      0.12500000E+00
      0.15000000E+00      0.00000000E+00      0.12500000E+00
      0.20000000E+00      0.00000000E+00      0.12500000E+00
      0.25000000E+00      0.00000000E+00      0.12500000E+00
      0.30000000E+00      0.00000000E+00      0.12500000E+00
      0.35000000E+00      0.00000000E+00      0.12500000E+00
      0.40000000E+00      0.00000000E+00      0.12500000E+00
      0.50000000E-01      0.00000000E+00      0.75000000E-01
      0.10000000E+00      0.00000000E+00      0.75000000E-01
      0.15000000E+00      0.00000000E+00      0.75000000E-01
      0.20000000E+00      0.00000000E+00      0.75000000E-01
      0.25000000E+00      0.00000000E+00      0.75000000E-01
      0.30000000E+00      0.00000000E+00      0.75000000E-01
      0.35000000E+00      0.00000000E+00      0.75000000E-01
      0.40000000E+00      0.00000000E+00      0.75000000E-01
      0.00000000E+00      0.00000000E+00      0.00000000E+00
      0.45000000E+00      0.00000000E+00      0.00000000E+00
      0.00000000E+00      0.00000000E+00      0.50000000E+00
      0.45000000E+00      0.00000000E+00      0.50000000E+00
      0.00000000E+00     -0.30000000E-01      0.00000000E+00
      0.45000000E+00     -0.30000000E-01      0.00000000E+00
      0.00000000E+00     -0.30000000E-01      0.50000000E+00
      0.45000000E+00     -0.30000000E-01      0.50000000E+00
      0.00000000E+00     -0.30000000E-01      0.10000000E-01
      0.00000000E+00     -0.30000000E-01      0.20000000E-01
      0.00000000E+00     -0.30000000E-01      0.30000000E-01
      0.00000000E+00     -0.30000000E-01      0.40000000E-01
      0.00000000E+00     -0.30000000E-01      0.50000000E-01
      0.00000000E+00     -0.30000000E-01      0.60000000E-01
      0.00000000E+00     -0.30000000E-01      0.70000000E-01
      0.00000000E+00     -0.30000000E-01      0.80000000E-01
      0.00000000E+00     -0.30000000E-01      0.90000000E-01
      0.00000000E+00     -0.30000000E-01      0.10000000E+00
      0.00000000E+00     -0.30000000E-01      0.11000000E+00
      0.00000000E+00     -0.30000000E-01      0.12000000E+00
      0.00000000E+00     -0.30000000E-01      0.13000000E+00
      0.00000000E+00     -0.30000000E-01      0.14000000E+00
      0.00000000E+00     -0.30000000E-01      0.15000000E+00
      0.00000000E+00     -0.30000000E-01      0.16000000E+00
      0.00000000E+00     -0.30000000E-01      0.17000000E+00
      0.00000000E+00     -0.30000000E-01      0.18000000E+00
      0.00000000E+00     -0.30000000E-01      0.19000000E+00
      0.00000000E+00     -0.30000000E-01      0.20000000E+00
      0.00000000E+00     -0.30000000E-01      0.21000000E+00
      0.00000000E+00     -0.30000000E-01      0.22000000E+00
      0.00000000E+00     -0.30000000E-01      0.23000000E+00
      0.00000000E+00     -0.30000000E-01      0.24000000E+00
      0.00000000E+00     -0.30000000E-01      0.25000000E+00
      0.00000000E+00     -0.30000000E-01      0.26000000E+00
      0.00000000E+00     -0.30000000E-01      0.27000000E+00
      0.00000000E+00     -0.30000000E-01      0.28000000E+00
      0.00000000E+00     -0.30000000E-01      0.29000000E+00
      0.00000000E+00     -0.30000000E-01      0.30000000E+00
      0.00000000E+00     -0.30000000E-01      0.31000000E+00
      0.00000000E+00     -0.30000000E-01      0.32000000E+00
      0.00000000E+00     -0.30000000E-01      0.33000000E+00
      0.00000000E+00     -0.30000000E-01      0.34000000E+00
      0.00000000E+00     -0.30000000E-01      0.35000000E+00
      0.00000000E+00     -0.30000000E-01      0.36000000E+00
      0.00000000E+00     -0.30000000E-01      0.37000000E+00
      0.00000000E+00     -0.30000000E-01      0.38000000E+00
      0.00000000E+00     -0.30000000E-01      0.39000000E+00
      0.00000000E+00     -0.30000000E-01      0.40000000E+00
      0.00000000E+00     -0.30000000E-01      0.41000000E+00
      0.00000000E+00     -0.30000000E-01      0.42000000E+00
      0.00000000E+00     -0.30000000E-01      0.43000000E+00
      0.00000000E+00     -0.30000000E-01      0.44000000E+00
      0.00000000E+00     -0.30000000E-01      0.45000000E+00
      0.00000000E+00     -0.30000000E-01      0.46000000E+00
      0.00000000E+00     -0.30000000E-01      0.47000000E+00
      0.00000000E+00     -0.30000000E-01      0.48000000E+00
      0.00000000E+00     -0.30000000E-01      0.49000000E+00
      0.10000000E-01     -0.30000000E-01      0.50000000E+00
      0.20000000E-01     -0.30000000E-01      0.50000000E+00
      0.30000000E-01     -0.30000000E-01      0.50000000E+00
      0.40000000E-01     -0.30000000E-01      0.50000000E+00
      0.50000000E-01     -0.30000000E-01      0.50000000E+00
      0.60000000E-01     -0.30000000E-01      0.50000000E+00
      0.70000000E-01     -0.30000000E-01      0.50000000E+00
      0.80000000E-01     -0.30000000E-01      0.50000000E+00
      0.90000000E-01     -0.30000000E-01      0.50000000E+00
      0.10000000E+00     -0.30000000E-01      0.50000000E+00
      0.11000000E+00     -0.30000000E-01      0.50000000E+00
      0.12000000E+00     -0.30000000E-01      0.50000000E+00
      0.13000000E+00     -0.30000000E-01      0.50000000E+00
      0.14000000E+00     -0.30000000E-01      0.50000000E+00
      0.15000000E+00     -0.30000000E-01      0.50000000E+00
      0.16000000E+00     -0.30000000E-01      0.50000000E+00
      0.17000000E+00     -0.30000000E-01      0.50000000E+00
      0.18000000E+00     -0.30000000E-01      0.50000000E+00
      0.19000000E+00     -0.30000000E-01      0.50000000E+00
      0.20000000E+00     -0.30000000E-01      0.50000000E+00
      0.21000000E+00     -0.30000000E-01      0.50000000E+00
      0.22000000E+00     -0.30000000E-01      0.50000000E+00
      0.23000000E+00     -0.30000000E-01      0.50000000E+00
      0.24000000E+00     -0.30000000E-01      0.50000000E+00
      0.25000000E+00     -0.30000000E-01      0.50000000E+00
      0.26000000E+00     -0.30000000E-01      0.50000000E+00
      0.27000000E+00     -0.30000000E-01      0.50000000E+00
      0.28000000E+00     -0.30000000E-01      0.50000000E+00
      0.29000000E+00     -0.30000000E-01      0.50000000E+00
      0.30000000E+00     -0.30000000E-01      0.50000000E+00
      0.31000000E+00     -0.30000000E-01      0.50000000E+00
      0.32000000E+00     -0.30000000E-01      0.50000000E+00
      0.33000000E+00     -0.30000000E-01      0.50000000E+00
      0.34000000E+00     -0.30000000E-01      0.50000000E+00
      0.35000000E+00     -0.30000000E-01      0.50000000E+00
      0.36000000E+00     -0.30000000E-01      0.50000000E+00
      0.37000000E+00     -0.30000000E-01      0.50000000E+00
[...]
POINT_DATA      8652
CELL_DATA     32557
SCALARS Resistivity(ohm.m) double 1
LOOKUP_TABLE default
            11.35219            11.84959            11.37013            11.62055            11.45361            10.75725            12.04726            11.48338            11.51732            11.19333            11.16135            10.61773            10.48862            11.62869            11.54610            11.45867            11.20401            11.93463            11.41347            12.00689            11.48657            11.31674            11.15031            11.19966            11.52013            11.28758            11.44754            11.62948            11.62346            11.17009            11.53207            11.22268            11.31789            11.51123            11.41299            11.81437            11.45468            11.72838            11.36306            11.46526            11.57859            12.00294            12.06315            11.57627            12.07506            11.48243            11.96326            11.85607            11.48685            12.11744            11.19358            11.71816            11.02808            11.73737            11.57958            11.42077            11.05085            11.17841            11.84620            11.29539            11.43467            11.16235            11.47162            11.98707            11.97164            11.64539            12.02505            11.93814            10.67035            11.27261            11.48111            11.19263            11.53447            11.13117            11.82997            11.22607            12.24052            12.17646            11.08785            11.11245            11.47154            11.75254            11.50817            11.46634            11.52297            11.24517            11.36234            11.82862            11.66293            10.83339            11.42867            11.14494            11.68680            11.87171            11.44382            11.19917            11.83391            11.91972            11.37317            11.09743            11.20244            11.41050            11.63677            11.70399            11.29390            11.89240            11.24421            12.08992            10.52149            11.10792            12.03659            11.88311            11.44879            11.87297            11.57967            11.42229            11.31418            11.62153            11.38513            11.23742            11.61141            11.22471            12.09034            11.09349            11.95223            11.54978            11.45746            11.61141            11.44827            11.52738            11.43471            11.66103            11.23864            11.13792            10.64082            11.59191            11.56709            11.83725            11.25434            11.29245            11.70698            11.31479            11.47748            11.68688            11.23892            12.07051            11.22811            11.19406            11.49572            11.26063            11.62647            11.09868            11.02217            12.18439            11.46951            11.21122            11.68195            11.03347            11.73095            11.83202            11.30610            11.84386            11.18061            11.80177            11.82076            11.96733            11.87758            11.57907            11.20623            11.42025            11.19340            11.04911            11.89426            11.18805            11.02490            11.21398            11.17595            11.52162            11.86913            11.79920            12.00923            11.89550            11.50205            11.44139            11.76382            11.84846            11.58346            11.85480            11.62258            11.82488            11.44933            11.32482            11.20144            11.13751            11.17939            11.86926            11.50952            11.85638            11.94304            12.06673            11.62881            11.83910            11.81247            11.91818            11.23538            11.75346            11.43137            11.30303            11.53824            11.69042            11.59807            11.46229            11.63359            11.52176            11.30707            11.56794            11.53913            11.51258            11.54037            11.57654            11.75046            11.02779            11.17337            11.98719            11.42082            11.21527            11.72983            11.63021            11.71099            11.79720            11.56842            11.73717            11.38745            11.61183            11.42115            11.17752            11.55070            11.59969            11.48071            11.36838            11.76662            12.01493            11.45270            11.45531            11.72817            10.80384            11.46710            11.62926            11.47762            11.51325            11.61489            11.32681            11.51786            11.01115            11.30371            11.33978            11.64204            11.09259            10.98534            11.90173            11.37999            12.11868            11.29491            11.39034            11.19975            11.46117            11.44568            11.10935            11.41232            11.49501            11.60700            11.35197            11.36270            11.02553            11.63025            11.18771            10.90112            11.27714            11.62516            11.34976            10.70005            11.48486            11.31231            11.95202            11.16384            11.30314            11.35282            11.52542            11.71751            11.57694            11.57771            11.58352            11.42613            11.24765            11.44653            11.18275            11.19233            11.37123            11.60226            11.41712            11.48248            11.62288            11.94260            11.45036            11.22865            11.43373            11.28511            11.39926            11.47481            10.85291            11.10455            11.82778            11.30645            11.47178            11.31883            11.94653            11.58082            12.07273            12.27250            11.43397            11.90212            11.65825            11.27469            11.23456            11.46786            11.43786            11.83722            11.66149            11.35584            11.46572            11.33324            11.52685            11.51924            11.14664            11.84167            11.48139            11.20793            11.42981            11.62494            10.77729            11.28856            11.83495            12.15325            11.86595            10.96133            11.60930            11.41814            11.59947            11.93176            11.47754            11.58553            11.73663            11.66787            11.21100            12.09499            11.88766            11.34112            11.32070            11.63284            11.22555            11.85763            11.29872            11.37327            11.17861            11.60832            11.41567            11.68864            11.28804            10.80092            11.46425            11.79652            11.16695            11.42612            11.43803            11.77623            11.15741            11.44510            11.51313            11.47256            11.67319            11.23430            12.11434            11.93019            11.20576            11.08866            11.65736            11.67482            11.30015            11.91578            11.64347            10.59949            10.82928            11.15124            12.26695            11.49497            11.20085            11.83877            11.84424            11.54440            11.32093            11.69117            11.37110            11.45892            11.96990            11.06079            11.82311            11.16735            11.57710            11.21566            11.74457            11.94424            11.23188            11.25594            11.50861            11.17341            11.46370            11.62920            11.90248            11.10697            11.88249            11.43631            11.82682            11.16128            11.05418            11.56858            12.08877            11.55873            11.59931            11.47211            10.45165            11.69905            11.28142            12.18902            11.13001            11.50244            12.08789            12.25972            10.61880            11.48035            11.79011            11.89392            11.24250            10.84446            11.92393            12.06345            12.23586            11.32571            11.70333            11.69791            10.91179            11.39366            11.73363            10.87161            11.87205            11.48228            11.31961            11.86125            11.90954            11.84775            11.68175            11.54427            11.26762            11.56765            11.08241            12.20710            11.45226            12.08123            11.57325            11.53512            11.11708            11.40023            11.93729            11.86897            11.42091            11.65957            11.29276            11.32813            10.91388            11.83676            11.48053            11.93310            11.72902            11.54638            10.92927            11.23645            11.72648            11.74908            11.75693            11.30782            11.53901            11.26045            11.96651            11.48033            11.64872            11.14686            11.49050            11.59399            11.63671            10.67468            12.07002            11.60089            11.27134            12.04130            11.48268            11.43559            11.22933            11.95619            11.58097            11.87458            11.83178            11.45891            10.80564            11.46863            11.57510            11.52227            11.80013            11.38307            11.45151            11.56348            12.01129            11.03467            11.45028            11.68765            11.35493            11.92788            11.85994            11.33069            12.22315            11.47130            11.83992            11.57423            11.26305            11.32866            11.59531            11.42143            11.17998            11.66981            11.25289            11.00866            11.10613            11.30248            11.81684            11.55603            11.33707            11.44223            11.58883            11.46716            11.16726            11.48423            11.13361            11.24920            11.70945            11.44162            11.27757            11.36454            11.20073            12.06123            11.30364            11.56714            11.16338            11.79564            11.51796            11.52596            11.52862            11.61005            11.91470            11.51564            11.71735            11.46274            11.80091            11.41973            11.48381            11.47835            11.53607            11.29286            11.50970            11.16061            11.73087            11.33744            11.55814            11.62501            11.90650            11.27443            11.25589            11.39838            11.19059            11.28562            12.08284            11.38302            11.67971            11.94787            11.38549            10.72928            11.72489            11.49812            11.50772            11.20810            11.48315            11.50844            11.51849            11.30279            11.20843            11.71594            11.45104            11.02928            11.51073            11.39760            11.46857            11.20575            11.22303            11.43755            11.12982            11.47434            11.50957            12.23213            11.88126            11.18747            11.56766            11.48390            11.82722            11.10866            11.58633            11.21272            11.51029            10.68317            11.32242            11.92315            11.87806            11.59621            12.19001            11.81994            11.06329            12.18936            11.59101            11.82700            11.54390            11.38371            12.10094            11.85735            11.31351            11.63977            11.62339            11.87881            11.35917            11.67949            11.16191            11.35873            10.72549            11.95332            11.44332            11.92853            11.79915            11.29904            11.17760            11.17115            11.49198            11.19499            11.82375            11.16009            11.48402            11.20421            11.31555            11.53129            11.83872            11.54421            11.38971            10.95435            11.95942            11.46391            11.55659            11.57288            11.18364            11.46173            11.73077            11.75762            11.30907            11.42229            11.81917            11.83619            11.72459            11.96305            11.84139            11.22818            11.90806            11.74218            11.63626            11.37391            11.46435            10.94919            11.96630            11.47216            10.97067            11.59800            11.68379            11.27309            11.88855            11.57866            11.51017            11.75256            11.58735            11.45600            11.29108            12.08909            11.33678            11.79414            11.94451            11.21272            11.17363            11.18979            11.62969            11.79010            11.16228            11.46881            10.93905            11.61310            11.62801            11.81919            11.50888            10.96997            11.67333            10.79155            11.36565            11.85423            11.93859            11.73138            11.79079            12.11860            11.36318            11.70542            11.84864            11.89034            11.78682            11.45265            11.05863            11.62672            11.45833            11.79756            11.33712            11.70061            12.11358            11.74284            11.54047            10.63475            11.51428            11.39521            11.79802            11.24633            11.33243            11.50394            11.40183            11.46886            11.47340            11.20280            11.48223            11.70464            11.32093            11.17311            11.84259            11.62545            11.18247            11.61771            11.06478            11.48584            11.43096            11.64309            12.23200            11.38235            11.41709            11.97062            11.92473            11.18630            11.27786            11.40354            11.07525            11.66251            11.57750            11.95268            11.55510            11.73879            11.47010            11.46353            11.56881            11.27709            11.31204            11.99273            11.32490            11.37924            11.86113            11.15880            11.45429            12.03092            11.67576            11.61985            12.18125            11.16103            11.13972            11.75898            11.30071            11.33927            11.57340            11.66875            12.27417            11.12859            11.76005            11.94796            11.61870            11.56269            11.33230            11.62963            11.12289            11.76281            11.17783            11.12559            11.57000            10.45472            11.62002            11.67549            11.63657            11.68332            11.72386            11.92967            10.92559            11.85990            11.73567            11.27805            11.91125            11.46126            11.08261            11.85785            11.36981            11.53269            11.55007            11.37685            11.52398            12.04814            11.20894            11.90426            11.88730            12.01559            11.59862            11.21659            11.27081            11.00050            11.43790            11.84407            11.96128            11.57134            11.86192            11.49756            11.66844            11.44629            11.41101            11.72186            11.95560            11.41187            11.83579            11.66084            11.67122            11.43944            11.44478            11.35733            11.96050            11.66680            11.13121            11.48736            11.48200            11.86553            11.22448            12.02473            11.98935            12.23718            11.60331            11.33255            10.98719            11.45347            11.47136            11.78538            11.53689            11.95492            11.62860            11.56673            11.02645            11.73420            11.41256            11.65931            11.46844            11.29826            11.85711            11.44706            11.63449            11.02426            11.51832            11.51776            11.59452            11.40666            11.92364            11.96111            11.24351            11.73179            11.27388            11.32408            12.12802            11.30273            11.49573            11.95110            11.47877            11.48373            11.85615            11.12644            11.47761            11.18437            11.37444            11.58474            11.26740            11.42577            11.52263            11.11762            11.02560            11.51342            11.41815            11.37560            11.64896            11.30296            11.86085            11.73384            12.03890            11.52939            11.64668            10.60195            11.29800            10.53805            11.63454            11.38074            11.66099            11.22258            12.04433            11.63587            11.41824            11.47720            11.29159            11.04997            12.08047            11.09307            11.83008            11.76999            11.37696            11.19995            11.83416            11.53149            11.85862            11.45707            11.32669            11.05532            11.17622            11.23068            11.83597            11.72140            11.38373            11.23692            11.87818            11.46976            11.16623            11.51627            11.81742            12.01215            11.45341            11.12447            11.41270            11.70247            11.96222            11.46604            11.53455            11.39482            11.01420            11.26934            11.96272            11.28703            11.25087            11.48719            11.43982            11.84674            11.20621            11.18039            11.36020            11.45045            11.52018            11.48411            11.18238            11.83977            11.14002            10.98847            11.90467            11.64250            11.12794            11.26666  