# vtk DataFile Version 3.0
Output from R3t
ASCII
DATASET UNSTRUCTURED_GRID
POINTS       8652 double
      0.50000000E-01     -0.50000000E-02      0.48500000E+00
      0.10000000E+00     -0.50000000E-02      0.48500000E+00
      0.15000000E+00     -0.50000000E-02      0.48500000E+00
      0.20000000E+00     -0.50000000E-02      0.48500000E+00
      0.25000000E+00     -0.50000000E-02      0.48500000E+00
      0.30000000E+00     -0.50000000E-02      0.48500000E+00
      0.35000000E+00     -0.50000000E-02      0.48500000E+00
      0.40000000E+00     -0.50000000E-02      0.48500000E+00
      0.50000000E-01      0.00000000E+00      0.42500000E+00
      0.10000000E+00      0.00000000E+00      0.42500000E+00
      0.15000000E+00      0.00000000E+00      0.42500000E+00
      0.20000000E+00      0.00000000E+00      0.42500000E+00
      0.25000000E+00      0.00000000E+00      0.42500000E+00
      0.30000000E+00      0.00000000E+00      0.42500000E+00
      0.35000000E+00      0.00000000E+00      0.42500000E+00
      0.40000000E+00      0.00000000E+00      0.42500000E+00
      0.50000000E-01      0.00000000E+00      0.37500000E+00
      0.10000000E+00      0.00000000E+00      0.37500000E+00
      0.15000000E+00      0.00000000E+00      0.37500000E+00
      0.20000000E+00      0.00000000E+00      0.37500000E+00
      0.25000000E+00      0.00000000E+00      0.37500000E+00
      0.30000000E+00      0.00000000E+00      0.37500000E+00
      0.35000000E+00      0.00000000E+00      0.37500000E+00
      0.40000000E+00      0.00000000E+00      0.37500000E+00
      0.50000000E-01      0.00000000E+00      0.32500000E+00
      0.10000000E+00      0.00000000E+00      0.32500000E+00
      0.15000000E+00      0.00000000E+00      0.32500000E+00
      0.20000000E+00      0.00000000E+00      0.32500000E+00
      0.25000000E+00      0.00000000E+00      0.32500000E+00
      0.30000000E+00      0.00000000E+00      0.32500000E+00
      0.35000000E+00      0.00000000E+00      0.32500000E+00
      0.40000000E+00      0.00000000E+00      0.32500000E+00
      0.50000000E-01      0.00000000E+00      0.27500000E+00
      0.10000000E+00      0.00000000E+00      0.27500000E+00
      0.15000000E+00      0.00000000E+00      0.27500000E+00
      0.20000000E+00      0.00000000E+00      0.27500000E+00
      0.25000000E+00      0.00000000E+00      0.27500000E+00
      0.30000000E+00      0.00000000E+00      0.27500000E+00
      0.35000000E+00      0.00000000E+00      0.27500000E+00
      0.40000000E+00      0.00000000E+00      0.27500000E+00
      0.50000000E-01      0.00000000E+00      0.22500000E+00
      0.10000000E+00      0.00000000E+00      0.22500000E+00
      0.15000000E+00      0.00000000E+00      0.22500000E+00
      0.20000000E+00      0.00000000E+00      0.22500000E+00
      0.25000000E+00      0.00000000E+00      0.22500000E+00
      0.30000000E+00      0.00000000E+00      0.22500000E+00
      0.35000000E+00      0.00000000E+00      0.22500000E+00
      0.40000000E+00      0.00000000E+00      0.22500000E+00
      0.50000000E-01      0.00000000E+00      0.17500000E+00
      0.10000000E+00      0.00000000E+00      0.17500000E+00
      0.15000000E+00      0.00000000E+00      0.17500000E+00
      0.20000000E+00      0.00000000E+00      0.17500000E+00
      0.50000000E-01      0.00000000E+00      0.12500000E+00
      0.10000000E+00      0.00000000E+00      0.12500000E+00
      0.15000000E+00      0.00000000E+00      0.12500000E+00
      0.20000000E+00      0.00000000E+00      0.12500000E+00
      0.25000000E+00      0.00000000E+00      0.12500000E+00
      0.30000000E+00      0.00000000E+00      0.12500000E+00
      0.35000000E+00      0.00000000E+00      0.12500000E+00
      0.40000000E+00      0.00000000E+00      0.12500000E+00
      0.50000000E-01      0.00000000E+00      0.75000000E-01
      0.10000000E+00      0.00000000E+00      0.75000000E-01
      0.15000000E+00      0.00000000E+00      0.75000000E-01
      0.20000000E+00      0.00000000E+00      0.75000000E-01
      0.25000000E+00      0.00000000E+00      0.75000000E-01
      0.30000000E+00      0.00000000E+00      0.75000000E-01
      0.35000000E+00      0.00000000E+00      0.75000000E-01
      0.40000000E+00      0.00000000E+00      0.75000000E-01
      0.00000000E+00      0.00000000E+00      0.00000000E+00
      0.45000000E+00      0.00000000E+00      0.00000000E+00
      0.00000000E+00      0.00000000E+00      0.50000000E+00
      0.45000000E+00      0.00000000E+00      0.50000000E+00
      0.00000000E+00     -0.30000000E-01      0.00000000E+00
      0.45000000E+00     -0.30000000E-01      0.00000000E+00
      0.00000000E+00     -0.30000000E-01      0.50000000E+00
      0.45000000E+00     -0.30000000E-01      0.50000000E+00
      0.00000000E+00     -0.30000000E-01      0.10000000E-01
      0.00000000E+00     -0.30000000E-01      0.20000000E-01
      0.00000000E+00     -0.30000000E-01      0.30000000E-01
      0.00000000E+00     -0.30000000E-01      0.40000000E-01
      0.00000000E+00     -0.30000000E-01      0.50000000E-01
      0.00000000E+00     -0.30000000E-01      0.60000000E-01
      0.00000000E+00     -0.30000000E-01      0.70000000E-01
      0.00000000E+00     -0.30000000E-01      0.80000000E-01
      0.00000000E+00     -0.30000000E-01      0.90000000E-01
      0.00000000E+00     -0.30000000E-01      0.10000000E+00
      0.00000000E+00     -0.30000000E-01      0.11000000E+00
      0.00000000E+00     -0.30000000E-01      0.12000000E+00
      0.00000000E+00     -0.30000000E-01      0.13000000E+00
      0.00000000E+00     -0.30000000E-01      0.14000000E+00
      0.00000000E+00     -0.30000000E-01      0.15000000E+00
      0.00000000E+00     -0.30000000E-01      0.16000000E+00
      0.00000000E+00     -0.30000000E-01      0.17000000E+00
      0.00000000E+00     -0.30000000E-01      0.18000000E+00
      0.00000000E+00     -0.30000000E-01      0.19000000E+00
      0.00000000E+00     -0.30000000E-01      0.20000000E+00
      0.00000000E+00     -0.30000000E-01      0.21000000E+00
      0.00000000E+00     -0.30000000E-01      0.22000000E+00
      0.00000000E+00     -0.30000000E-01      0.23000000E+00
      0.00000000E+00     -0.30000000E-01      0.24000000E+00
      0.00000000E+00     -0.30000000E-01      0.25000000E+00
      0.00000000E+00     -0.30000000E-01      0.26000000E+00
      0.00000000E+00     -0.30000000E-01      0.27000000E+00
      0.00000000E+00     -0.30000000E-01      0.28000000E+00
      0.00000000E+00     -0.30000000E-01      0.29000000E+00
      0.00000000E+00     -0.30000000E-01      0.30000000E+00
      0.00000000E+00     -0.30000000E-01      0.31000000E+00
      0.00000000E+00     -0.30000000E-01      0.32000000E+00
      0.00000000E+00     -0.30000000E-01      0.33000000E+00
      0.00000000E+00     -0.30000000E-01      0.34000000E+00
      0.00000000E+00     -0.30000000E-01      0.35000000E+00
      0.00000000E+00     -0.30000000E-01      0.36000000E+00
      0.00000000E+00     -0.30000000E-01      0.37000000E+00
      0.00000000E+00     -0.30000000E-01      0.38000000E+00
      0.00000000E+00     -0.30000000E-01      0.39000000E+00
      0.00000000E+00     -0.30000000E-01      0.40000000E+00
      0.00000000E+00     -0.30000000E-01      0.41000000E+00
      0.00000000E+00     -0.30000000E-01      0.42000000E+00
      0.00000000E+00     -0.30000000E-01      0.43000000E+00
      0.00000000E+00     -0.30000000E-01      0.44000000E+00
      0.00000000E+00     -0.30000000E-01      0.45000000E+00
      0.00000000E+00     -0.30000000E-01      0.46000000E+00
      0.00000000E+00     -0.30000000E-01      0.47000000E+00
      0.00000000E+00     -0.30000000E-01      0.48000000E+00
      0.00000000E+00     -0.30000000E-01      0.49000000E+00
      0.10000000E-01     -0.30000000E-01      0.50000000E+00
      0.20000000E-01     -0.30000000E-01      0.50000000E+00
      0.30000000E-01     -0.30000000E-01      0.50000000E+00
      0.40000000E-01     -0.30000000E-01      0.50000000E+00
      0.50000000E-01     -0.30000000E-01      0.50000000E+00
      0.60000000E-01     -0.30000000E-01      0.50000000E+00
      0.70000000E-01     -0.30000000E-01      0.50000000E+00
      0.80000000E-01     -0.30000000E-01      0.50000000E+00
      0.90000000E-01     -0.30000000E-01      0.50000000E+00
      0.10000000E+00     -0.30000000E-01      0.50000000E+00
      0.11000000E+00     -0.30000000E-01      0.50000000E+00
      0.12000000E+00     -0.30000000E-01      0.50000000E+00
      0.13000000E+00     -0.30000000E-01      0.50000000E+00
      0.14000000E+00     -0.30000000E-01      0.50000000E+00
      0.15000000E+00     -0.30000000E-01      0.50000000E+00
      0.16000000E+00     -0.30000000E-01      0.50000000E+00
      0.17000000E+00     -0.30000000E-01      0.50000000E+00
      0.18000000E+00     -0.30000000E-01      0.50000000E+00
      0.19000000E+00     -0.30000000E-01      0.50000000E+00
      0.20000000E+00     -0.30000000E-01      0.50000000E+00
      0.21000000E+00     -0.30000000E-01      0.50000000E+00
      0.22000000E+00     -0.30000000E-01      0.50000000E+00
      0.23000000E+00     -0.30000000E-01      0.50000000E+00
      0.24000000E+00     -0.30000000E-01      0.50000000E+00
      0.25000000E+00     -0.30000000E-01      0.50000000E+00
      0.26000000E+00     -0.30000000E-01      0.50000000E+00
      0.27000000E+00     -0.30000000E-01      0.50000000E+00
      0.28000000E+00     -0.30000000E-01      0.50000000E+00
      0.29000000E+00     -0.30000000E-01      0.50000000E+00
      0.30000000E+00     -0.30000000E-01      0.50000000E+00
      0.31000000E+00     -0.30000000E-01      0.50000000E+00
      0.32000000E+00     -0.30000000E-01      0.50000000E+00
      0.33000000E+00     -0.30000000E-01      0.50000000E+00
      0.34000000E+00     -0.30000000E-01      0.50000000E+00
      0.35000000E+00     -0.30000000E-01      0.50000000E+00
      0.36000000E+00     -0.30000000E-01      0.50000000E+00
      0.37000000E+00     -0.30000000E-01      0.50000000E+00
[...]
POINT_DATA      8652
CELL_DATA     32557
SCALARS Resistivity(ohm.m) double 1
LOOKUP_TABLE default
             9.69993            10.39160             9.68982            10.20773            10.08712             9.22725            10.42758             9.99409            10.04857             9.92787             9.87300             9.15674             8.87505            10.11717            10.21073             9.69338             9.78175            10.48001             9.97854            10.34734             9.78687             9.93745             9.67031             9.95193             9.96458             9.99999            10.01933            10.23377             9.94072             9.70295            10.07341             9.46868             9.93867            10.00444             9.92892            10.37698             9.90692            10.11457             9.97197            10.00657            10.17351            10.34271            10.56187            10.00837            10.47445            10.04125            10.49359            10.60970            10.20777            10.78978             9.44397            10.09085             9.71438            10.33031             9.91047            10.07036             9.73210             9.91963            10.32058             9.73104            10.00521             9.65483            10.06011            10.54556            10.60099            10.21890            10.37120            10.51020             9.13570             9.88060            10.15848             9.78268            10.07465             9.73041            10.07392             9.74987            11.09012            11.04853             9.62461             9.87107             9.73156            10.33480            10.07924             9.90675            10.05458             9.76466            10.06512            10.06660            10.24064             9.49607            10.05025             9.74297            10.05919            10.46221             9.72691             9.76582            10.29031            10.33976            10.07550             9.84331             9.91660             9.70493            10.24299            10.28152             9.78812            10.40273             9.91993            10.68910             8.91019             9.31418            10.71231            10.42680             9.99181            10.43028             9.90917             9.83738             9.92826             9.94034            10.08682             9.45955            10.20457             9.89910            10.50054             9.83574            10.52024            10.15997            10.01432            10.22706            10.05994            10.30186             9.71422            10.10973             9.56418             9.76036             9.26281            10.24654            10.14512            10.07900             9.64420             9.82954            10.12427             9.67655             9.73609            10.21143             9.47172            10.75995             9.87012             9.89851             9.97671             9.74531            10.21526             9.63344             9.44277            11.03121            10.00672             9.81955            10.34281             9.78843            10.29523            10.29277             9.72105            10.46181            10.25546            10.00189            10.04392            10.48232            10.23663            10.00262             9.90156             9.83881             9.75708             9.80730            10.66387             9.60821             9.78165             9.79568             9.75181            10.14287            10.40319            10.39020            10.54781            10.54432            10.03917            10.00305            10.19268            10.09825             9.98808            10.39218            10.21101            10.11475            10.06135             9.70750             9.84505             9.36018             9.71588            10.21401            10.02421            10.12098            10.46101            10.56350            10.31072            10.21947            10.23072            10.46172             9.58019            10.22078             9.96532             9.77763            10.11480            10.11500            10.08994            10.18041            10.23938            10.09592             9.79032            10.14175            10.19851            10.10339            10.05574            10.23038            10.28898             9.78288             9.79813            10.65511            10.01369             9.91684            10.10311            10.23603            10.06412            10.42073             9.81535            10.26459             9.69413            10.28718             9.73268             9.41911            10.14594            10.02339            10.01394            10.08059            10.34212            10.36540             9.91872             9.77027            10.44286             9.35186             9.98931            10.22596             9.73834            10.22928            10.19915             9.90918            10.09859             9.43096             9.96377             9.57075            10.25193             9.54329             9.34300            10.21452             9.93150            10.62802             9.69532            10.03108             9.79250            10.17307             9.70686            10.11182            10.04888             9.99489            10.00951             9.93479             9.96992             9.78415            10.25201             9.88444             9.68236             9.63396            10.21266             9.85729             9.20944            10.03428            10.00543            10.38052             9.62447             9.75690             9.86272            10.10539            10.28486            10.14888            10.19689            10.08798             9.89039             9.89903             9.75738             9.88844             9.92580            10.06561            10.25626            10.04308             9.98927            10.21672            10.56093            10.00539             9.83225             9.75752             9.73184             9.70017             9.99829             9.60235             9.63592            10.28096             9.73209            10.00778             9.95894            10.49421            10.29363            10.46837            11.08905             9.99209            10.44061             9.95525             9.87554             9.95047            10.02130             9.76261            10.39158            10.30773             9.84845            10.02355            10.06108            10.06911            10.28311             9.68613            10.32090            10.01798             9.62601            10.06613            10.19669             9.38691            10.01316            10.37001            10.95243            10.14299             9.76457            10.19115             9.98792            10.18217            10.20688            10.08498            10.17685            10.14947            10.18264             9.91066            10.66073            10.35893             9.89426             9.80568            10.26269             9.76705            10.16012             9.52424             9.95532             9.40003             9.96698             9.97731            10.06649             9.85935             9.47118            10.14477             9.99244             9.39743             9.88935             9.71148            10.50026             9.73887            10.02426            10.16261             9.72921            10.33222             9.95298            10.57929            10.55348             9.73407             9.30956            10.53952            10.32428             9.74242            10.47480            10.25712             9.02533             9.54425             9.86054            11.12099            10.14931             9.89934            10.17827            10.09733            10.18587             9.94563            10.57598             9.88306             9.97779            10.47185             9.80770            10.26950             9.91471            10.21589             9.85407            10.27778            10.48747             9.95391             9.50940            10.00057             9.68988            10.14130            10.20809            10.49213             9.33259            10.51326             9.79725            10.30704             9.49306             9.80139            10.18588            10.49954            10.04126            10.09776            10.00596             8.84055            10.13655             9.87495            11.05925             9.67163             9.97191            10.57537            11.06116             9.22001            10.11669            10.09265            10.42055             9.86906             9.56509            10.20335            10.57165            11.10986             9.95082            10.28338            10.22684             9.69522             9.95745            10.14355             9.61119            10.38865             9.77242             9.78340            10.34185            10.24250            10.10242            10.00902            10.09242             9.82181            10.13987             9.74774            11.09223            10.00858            10.49373            10.12353            10.01295             9.85719            10.09579            10.52278            10.38565            10.09965            10.53156             9.51934             9.87911             9.29375            10.08153            10.01512            10.28191            10.14511            10.07312             9.31431             9.88487            10.46504            10.34861            10.35248             9.74910             9.98985             9.99545            10.60285             9.74668            10.26549             9.64885             9.94946            10.20036             9.98680             9.25772            10.91597            10.20280             9.95119            10.73024            10.03546             9.97269             9.86081            10.22314             9.93438            10.36707            10.07325            10.02389             9.42648             9.78012            10.04097            10.08750            10.10296            10.01743             9.71091            10.11285            10.53571             9.27252            10.21842            10.10709             9.98331            10.27252            10.37057             9.81263            11.03477            10.00435            10.17463            10.05029             9.93053             9.61347            10.11378            10.00630             9.40325            10.18289             9.79861             9.77648             9.86424             9.82256            10.35766            10.03052             9.95580             9.98022            10.07804             9.83701             9.55036            10.03956             9.35527             9.92171            10.13033            10.02681             9.72982             9.69965             9.68259            10.63961             9.97556             9.97228             9.74286             9.99716            10.27342            10.15364             9.84724            10.02301            10.51068            10.09299            10.07984             9.88921            10.18585            10.09327            10.04184             9.96891            10.19973             9.75269             9.99423             9.66920            10.24970             9.63184            10.10721            10.21114            10.54795             9.76099             9.76795             9.85254             9.94010             9.78049            10.63488            10.01781            10.27331            10.46501            10.00472             9.32438            10.13698            10.19007             9.99942             9.84678            10.03706            10.25177            10.00589            10.00510             9.44571            10.25984             9.67795             9.78341             9.98604            10.03706            10.02432             9.90397             9.93424             9.99714             9.67077            10.10158             9.99371            11.10121            10.51576             9.90993            10.13753            10.04143            10.57247             9.84679            10.14734             9.90495             9.99732             9.30503            10.02933            10.42480            10.43719            10.08380            10.99553            10.05377             9.40553            11.03237            10.17735            10.36818            10.01850            10.08222            10.66763            10.60724             9.74626            10.21090            10.10894            10.30215             9.69634            10.26568             9.46679             9.86004             9.17828            10.58841             9.94166            10.20716            10.38450             9.70246             9.92650             9.76640             9.98163             9.69495            10.04553             9.73803            10.04081             9.86932             9.78902            10.10554            10.22884            10.02091            10.00121             9.75932            10.22847            10.17693            10.10230            10.05852             9.75872            10.01931            10.10808            10.22908             9.78484             9.86164            10.03836            10.08457            10.06572            10.54540            10.20437             9.78266            10.54276            10.12819            10.25995            10.08760            10.07261             9.75422            10.23958            10.00814             9.77396            10.15164            10.07046             9.58705            10.23589            10.10694             9.99350            10.31628             9.89066             9.93429             9.88568            10.77669            10.03461            10.38543            10.47170             9.88185             9.78164             9.75661            10.24424             9.98264             9.61167            10.01208             9.74116            10.22308            10.21888            10.03970             9.99412             9.77035            10.34496             9.32068             9.95657            10.33885            10.46512            10.44280            10.42570            10.61161            10.01861            10.12197            10.14619            10.18756            10.23485             9.70155             9.81596            10.21984             9.70091             9.99044             9.63477            10.11644            10.87352            10.33339            10.01961             9.07991            10.00735             9.89290            10.38327             9.75586             9.97770            10.06477             9.88069             9.96655            10.14539             9.54850             9.99030            10.27642             9.90712             9.40333            10.27367            10.19120             9.72432            10.27932             9.83793             9.72996             9.99824             9.96459            11.07681             9.60928             9.99640            10.55003            10.50437             9.68533             9.61977             9.98486             9.78270            10.33554            10.20128            10.53360            10.03349            10.16381            10.00477             9.87482            10.12937            10.01282             9.92218            10.54134             9.92774             9.68777            10.35040             9.46185            10.01146            10.42092            10.19257            10.21463            11.02580             9.46074             9.80426            10.18396             9.55114             9.74292            10.13298            10.57588            11.07275             9.35354            10.21799            10.46024            10.13852            10.04442             9.83226            10.04706             9.65457            10.24281             9.49428             9.36705            10.23106             8.85354            10.16454            10.07419            10.25952            10.07584            10.14252            10.44879             9.30845            10.12011            10.15863             9.72294            10.51053             9.90334             9.33302            10.58380             9.92458            10.06210            10.21713            10.09748            10.13971            10.51671             9.85889            10.44377            10.45951            10.68029            10.16908             9.45775             9.95513             9.36988             9.90626            10.20460            10.47010            10.03504            10.20963            10.10170            10.41704            10.03258            10.02303            10.09033            10.22492            10.01036            10.07455            10.07462            10.23711            10.02660            10.05507            10.24928            10.52506            10.16083             9.42041             9.98230            10.19134            10.15882             9.44832            10.55440            10.63470            11.11772            10.27727             9.68269             9.78829            10.16834             9.85247            10.34889             9.76795            10.48087            10.25630            10.20987             9.78168            10.15635            10.03421            10.19730            10.01756             9.98888            10.19981             9.90973            10.24032             9.44643            10.11841            10.09249            10.01879            10.03153            10.30445            10.53465             9.85206            10.26695             9.50109             9.75469            10.87374            10.03676             9.99096            10.24715             9.97989             9.80071            10.24822             9.87993            10.01212             9.52026             9.84020            10.06015             9.66512             9.98304            10.12988             9.46717             9.78150            10.04506             9.71810            10.07945            10.31365             9.87155            10.21577            10.44301            10.39453            10.16027             9.96963             9.12495             9.52608             8.95610            10.24017            10.00315            10.40593             9.75096            10.42488            10.12188            10.01804            10.13976             9.89484             9.74720            10.47880             9.85048            10.07233            10.31248             9.77798             9.39219            10.45366            10.05455            10.18826             9.71813             9.66622             9.81042             9.39917             9.93112            10.37011            10.08990             9.83212             9.48586            10.33469            10.02420             9.60971             9.78175            10.44487            10.69084             9.80601             9.74292             9.85718            10.10796            10.30379             9.99174            10.13797             9.99595             9.39093             9.53204            10.52874             9.68486             9.72912             9.74330            10.00171            10.10390             9.44433             9.40166            10.09299            10.01505             9.80779            10.04146             9.40468            10.12535             9.76871             9.78754            10.56548            10.21101             9.85292             9.80246  